
Host: DESKTOP-UC4IJ0G

Timers On : Tue May 12 13:22:21 2020
Timers Off: Tue May 12 13:22:37 2020

Wall Time:       15.76 seconds

                                                       Time (seconds)
Module                                       User      System        Wall        Calls

--------------------------------------------------------------------------------------

**************************************************************************************
