
    -----------------------------------------------------------------------
          Psi4: An Open-Source Ab Initio Electronic Structure Package
                               Psi4 1.2 release

                         Git: Rev {HEAD} 9d4a61c 


    R. M. Parrish, L. A. Burns, D. G. A. Smith, A. C. Simmonett,
    A. E. DePrince III, E. G. Hohenstein, U. Bozkaya, A. Yu. Sokolov,
    R. Di Remigio, R. M. Richard, J. F. Gonthier, A. M. James,
    H. R. McAlexander, A. Kumar, M. Saitow, X. Wang, B. P. Pritchard,
    P. Verma, H. F. Schaefer III, K. Patkowski, R. A. King, E. F. Valeev,
    F. A. Evangelista, J. M. Turney, T. D. Crawford, and C. D. Sherrill,
    J. Chem. Theory Comput. 13(7) pp 3185--3197 (2017).
    (doi: 10.1021/acs.jctc.7b00174)


                         Additional Contributions by
    P. Kraus, H. Kruse, M. H. Lechner, M. C. Schieber, and R. A. Shaw

    -----------------------------------------------------------------------


    Psi4 started on: Thursday, 19 September 2019 09:58AM

    Process ID: 406
    Host:       LAPTOP-UD8U1GLI
    PSIDATADIR: /home/sohompaul/psi4conda/share/psi4
    Memory:     500.0 MiB
    Threads:    1
    
  ==> Input File <==

--------------------------------------------------------------------------
memory 2 gb

molecule h2o {
0 1
O
H 1 1.0
H 1 1.0 2 90.0
}

E, wfn = energy('b3lyp/cc-pvdz', return_wfn=True)
property('b3lyp/cc-pvdz', properties=['dipole'])--------------------------------------------------------------------------

  Memory set to   1.863 GiB by Python driver.

*** tstart() called on LAPTOP-UD8U1GLI
*** at Thu Sep 19 09:58:41 2019

   => Loading Basis Set <=

    Name: CC-PVDZ
    Role: ORBITAL
    Keyword: BASIS
    atoms 1   entry O          line   198 file /home/sohompaul/psi4conda/share/psi4/basis/cc-pvdz.gbs 
    atoms 2-3 entry H          line    22 file /home/sohompaul/psi4conda/share/psi4/basis/cc-pvdz.gbs 


         ---------------------------------------------------------
                                   SCF
            by Justin Turney, Rob Parrish, Andy Simmonett
                             and Daniel Smith
                              RKS Reference
                        1 Threads,   1907 MiB Core
         ---------------------------------------------------------

  ==> Geometry <==

    Molecular point group: c2v
    Full point group: C2v

    Geometry (in Angstrom), charge = 0, multiplicity = 1:

       Center              X                  Y                   Z               Mass       
    ------------   -----------------  -----------------  -----------------  -----------------
         O            0.000000000000     0.000000000000    -0.079135765807    15.994914619560
         H            0.000000000000    -0.707106781187     0.627971015380     1.007825032070
         H            0.000000000000     0.707106781187     0.627971015380     1.007825032070

  Running in c2v symmetry.

  Rotational constants: A =     18.83462  B =     16.72674  C =      8.85910 [cm^-1]
  Rotational constants: A = 564647.56322  B = 501455.10273  C = 265589.24470 [MHz]
  Nuclear repulsion =    8.841020130083360

  Charge       = 0
  Multiplicity = 1
  Electrons    = 10
  Nalpha       = 5
  Nbeta        = 5

  ==> Algorithm <==

  SCF Algorithm Type is DF.
  DIIS enabled.
  MOM disabled.
  Fractional occupation disabled.
  Guess Type is SAD.
  Energy threshold   = 1.00e-06
  Density threshold  = 1.00e-06
  Integral threshold = 0.00e+00

  ==> Primary Basis <==

  Basis Set: CC-PVDZ
    Blend: CC-PVDZ
    Number of shells: 12
    Number of basis function: 24
    Number of Cartesian functions: 25
    Spherical Harmonics?: true
    Max angular momentum: 2

  ==> DFT Potential <==

   => Composite Functional: B3LYP <= 

    B3LYP Hyb-GGA Exchange-Correlation Functional

    P. J. Stephens, F. J. Devlin, C. F. Chabalowski, and M. J. Frisch, J. Phys. Chem. 98, 11623 (1994)

    Deriv               =              1
    GGA                 =           TRUE
    Meta                =          FALSE

    Exchange Hybrid     =           TRUE
    MP2 Hybrid          =          FALSE

   => Exchange Functionals <=

    0.0800   Slater exchange
    0.7200         Becke 88

   => Exact (HF) Exchange <=

    0.2000               HF 

   => Correlation Functionals <=

    0.1900   Vosko, Wilk & Nusair (VWN5_RPA)
    0.8100   Lee, Yang & Parr

   => Molecular Quadrature <=

    Radial Scheme       =       TREUTLER
    Pruning Scheme      =           FLAT
    Nuclear Scheme      =       TREUTLER

    BS radius alpha     =              1
    Pruning alpha       =              1
    Radial Points       =             75
    Spherical Points    =            302
    Total Points        =          66391
    Total Blocks        =            565
    Max Points          =            255
    Max Functions       =             24

   => Loading Basis Set <=

    Name: (CC-PVDZ AUX)
    Role: JKFIT
    Keyword: DF_BASIS_SCF
    atoms 1   entry O          line   221 file /home/sohompaul/psi4conda/share/psi4/basis/cc-pvdz-jkfit.gbs 
    atoms 2-3 entry H          line    51 file /home/sohompaul/psi4conda/share/psi4/basis/cc-pvdz-jkfit.gbs 

  ==> Pre-Iterations <==

   -------------------------------------------------------
    Irrep   Nso     Nmo     Nalpha   Nbeta   Ndocc  Nsocc
   -------------------------------------------------------
     A1        11      11       0       0       0       0
     A2         2       2       0       0       0       0
     B1         4       4       0       0       0       0
     B2         7       7       0       0       0       0
   -------------------------------------------------------
    Total      24      24       5       5       5       0
   -------------------------------------------------------

  ==> Integral Setup <==

  ==> MemDFJK: Density-Fitted J/K Matrices <==

    J tasked:                   Yes
    K tasked:                   Yes
    wK tasked:                   No
    OpenMP threads:               1
    Memory (MB):               1430
    Algorithm:                 Core
    Schwarz Cutoff:           1E-12
    Mask sparsity (%):       0.0000
    Fitting Condition:        1E-12

   => Auxiliary Basis Set <=

  Basis Set: (CC-PVDZ AUX)
    Blend: CC-PVDZ-JKFIT
    Number of shells: 42
    Number of basis function: 116
    Number of Cartesian functions: 131
    Spherical Harmonics?: true
    Max angular momentum: 3

  Minimum eigenvalue in the overlap matrix is 3.5753954651E-02.
  Using Symmetric Orthogonalization.

  SCF Guess: Superposition of Atomic Densities via on-the-fly atomic UHF.

  ==> Iterations <==

                           Total Energy        Delta E     RMS |[F,P]|

   @DF-RKS iter   0:   -76.41231419337538   -7.64123e+01   1.08592e-01 
   @DF-RKS iter   1:   -76.34383479140915    6.84794e-02   3.10762e-02 
   @DF-RKS iter   2:   -76.26058006710009    8.32547e-02   4.65314e-02 DIIS
   @DF-RKS iter   3:   -76.41540523997769   -1.54825e-01   8.94440e-04 DIIS
   @DF-RKS iter   4:   -76.41546426824569   -5.90283e-05   2.47130e-04 DIIS
   @DF-RKS iter   5:   -76.41546829918573   -4.03094e-06   2.97595e-05 DIIS
   @DF-RKS iter   6:   -76.41546837215613   -7.29704e-08   1.43983e-06 DIIS
   @DF-RKS iter   7:   -76.41546837235214   -1.96010e-10   1.24256e-07 DIIS

  ==> Post-Iterations <==

    Orbital Energies [Eh]
    ---------------------

    Doubly Occupied:                                                      

       1A1   -19.135695     2A1    -0.989560     1B2    -0.472779  
       3A1    -0.391565     1B1    -0.289553  

    Virtual:                                                              

       4A1     0.038226     2B2     0.115823     3B2     0.506503  
       5A1     0.618792     2B1     0.912822     6A1     0.930739  
       4B2     1.005173     7A1     1.076280     1A2     1.275886  
       3B1     1.342301     8A1     1.575533     5B2     1.701481  
       6B2     2.039749     9A1     2.084442     2A2     2.880492  
       4B1     2.940578    10A1     3.031549    11A1     3.408912  
       7B2     3.739450  

    Final Occupation by Irrep:
             A1    A2    B1    B2 
    DOCC [     3,    0,    1,    1 ]

  Energy converged.

  @DF-RKS Final Energy:   -76.41546837235214

   => Energetics <=

    Nuclear Repulsion Energy =              8.8410201300833595
    One-Electron Energy =                -122.5369721335621023
    Two-Electron Energy =                  44.8270427873261426
    DFT Exchange-Correlation Energy =      -7.5465591561995389
    Empirical Dispersion Energy =           0.0000000000000000
    VV10 Nonlocal Energy =                  0.0000000000000000
    Total Energy =                        -76.4154683723521231



Properties will be evaluated at   0.000000,   0.000000,   0.000000 [a0]

Properties computed using the SCF density matrix

  Nuclear Dipole Moment: [e a0]
     X:     0.0000      Y:     0.0000      Z:     1.1770

  Electronic Dipole Moment: [e a0]
     X:     0.0000      Y:     0.0000      Z:    -0.3493

  Dipole Moment: [e a0]
     X:     0.0000      Y:     0.0000      Z:     0.8277     Total:     0.8277

  Dipole Moment: [D]
     X:     0.0000      Y:     0.0000      Z:     2.1038     Total:     2.1038


*** tstop() called on LAPTOP-UD8U1GLI at Thu Sep 19 09:58:43 2019
Module time:
	user time   =       1.04 seconds =       0.02 minutes
	system time =       0.11 seconds =       0.00 minutes
	total time  =          2 seconds =       0.03 minutes
Total time:
	user time   =       1.04 seconds =       0.02 minutes
	system time =       0.11 seconds =       0.00 minutes
	total time  =          2 seconds =       0.03 minutes

Traceback (most recent call last):
  File "/home/sohompaul/psi4conda/bin/psi4", line 269, in <module>
    exec(content)
  File "<string>", line 30, in <module>

TypeError: 'properties' is an invalid keyword argument for this function

    Psi4 stopped on: Thursday, 19 September 2019 09:58AM
    Psi4 wall time for execution: 0:00:01.33

*** Psi4 encountered an error. Buy a developer more coffee!
*** Resources and help at github.com/psi4/psi4.
