
    -----------------------------------------------------------------------
          Psi4: An Open-Source Ab Initio Electronic Structure Package
                               Psi4 1.2 release

                         Git: Rev {HEAD} 9d4a61c 


    R. M. Parrish, L. A. Burns, D. G. A. Smith, A. C. Simmonett,
    A. E. DePrince III, E. G. Hohenstein, U. Bozkaya, A. Yu. Sokolov,
    R. Di Remigio, R. M. Richard, J. F. Gonthier, A. M. James,
    H. R. McAlexander, A. Kumar, M. Saitow, X. Wang, B. P. Pritchard,
    P. Verma, H. F. Schaefer III, K. Patkowski, R. A. King, E. F. Valeev,
    F. A. Evangelista, J. M. Turney, T. D. Crawford, and C. D. Sherrill,
    J. Chem. Theory Comput. 13(7) pp 3185--3197 (2017).
    (doi: 10.1021/acs.jctc.7b00174)


                         Additional Contributions by
    P. Kraus, H. Kruse, M. H. Lechner, M. C. Schieber, and R. A. Shaw

    -----------------------------------------------------------------------


    Psi4 started on: Sunday, 15 September 2019 09:58PM

    Process ID: 119
    Host:       LAPTOP-UD8U1GLI
    PSIDATADIR: /home/sohompaul/psi4conda/share/psi4
    Memory:     500.0 MiB
    Threads:    1
    
  ==> Input File <==

--------------------------------------------------------------------------
memory 2 gb

molecule h20 {
O
H 1 0.96
H 1 0.96 2 104.5
}

set basis cc-pVDZ
e, wfn = energy('ccsd', return_wfn=True)

--------------------------------------------------------------------------

  Memory set to   1.863 GiB by Python driver.

*** tstart() called on LAPTOP-UD8U1GLI
*** at Sun Sep 15 21:58:20 2019

   => Loading Basis Set <=

    Name: CC-PVDZ
    Role: ORBITAL
    Keyword: BASIS
    atoms 1   entry O          line   198 file /home/sohompaul/psi4conda/share/psi4/basis/cc-pvdz.gbs 
    atoms 2-3 entry H          line    22 file /home/sohompaul/psi4conda/share/psi4/basis/cc-pvdz.gbs 

    There are an even number of electrons - assuming singlet.
    Specify the multiplicity in the molecule input block.


         ---------------------------------------------------------
                                   SCF
            by Justin Turney, Rob Parrish, Andy Simmonett
                             and Daniel Smith
                              RHF Reference
                        1 Threads,   1907 MiB Core
         ---------------------------------------------------------

  ==> Geometry <==

    Molecular point group: c2v
    Full point group: C2v

    Geometry (in Angstrom), charge = 0, multiplicity = 1:

       Center              X                  Y                   Z               Mass       
    ------------   -----------------  -----------------  -----------------  -----------------
         O            0.000000000000     0.000000000000    -0.065775570538    15.994914619560
         H            0.000000000000    -0.759061990794     0.521953018295     1.007825032070
         H            0.000000000000     0.759061990794     0.521953018295     1.007825032070

  Running in c2v symmetry.

  Rotational constants: A =     27.26297  B =     14.51533  C =      9.47217 [cm^-1]
  Rotational constants: A = 817323.20514  B = 435158.59817  C = 283968.37324 [MHz]
  Nuclear repulsion =    9.168193260387573

  Charge       = 0
  Multiplicity = 1
  Electrons    = 10
  Nalpha       = 5
  Nbeta        = 5

  ==> Algorithm <==

  SCF Algorithm Type is PK.
  DIIS enabled.
  MOM disabled.
  Fractional occupation disabled.
  Guess Type is SAD.
  Energy threshold   = 1.00e-08
  Density threshold  = 1.00e-08
  Integral threshold = 0.00e+00

  ==> Primary Basis <==

  Basis Set: CC-PVDZ
    Blend: CC-PVDZ
    Number of shells: 12
    Number of basis function: 24
    Number of Cartesian functions: 25
    Spherical Harmonics?: true
    Max angular momentum: 2

  ==> Pre-Iterations <==

   -------------------------------------------------------
    Irrep   Nso     Nmo     Nalpha   Nbeta   Ndocc  Nsocc
   -------------------------------------------------------
     A1        11      11       0       0       0       0
     A2         2       2       0       0       0       0
     B1         4       4       0       0       0       0
     B2         7       7       0       0       0       0
   -------------------------------------------------------
    Total      24      24       5       5       5       0
   -------------------------------------------------------

  ==> Integral Setup <==

  Using in-core PK algorithm.
   Calculation information:
      Number of atoms:                   3
      Number of AO shells:              12
      Number of primitives:             32
      Number of atomic orbitals:        25
      Number of basis functions:        24

      Integral cutoff                 1.00e-12
      Number of threads:                 1

  Performing in-core PK
  Using 90300 doubles for integral storage.
  We computed 3081 shell quartets total.
  Whereas there are 3081 unique shell quartets.

  ==> DiskJK: Disk-Based J/K Matrices <==

    J tasked:                  Yes
    K tasked:                  Yes
    wK tasked:                  No
    Memory (MB):              1430
    Schwarz Cutoff:          1E-12

    OpenMP threads:              1

  Minimum eigenvalue in the overlap matrix is 3.4377086883E-02.
  Using Symmetric Orthogonalization.

  SCF Guess: Superposition of Atomic Densities via on-the-fly atomic UHF.

  ==> Iterations <==

                        Total Energy        Delta E     RMS |[F,P]|

   @RHF iter   0:   -75.89628806000448   -7.58963e+01   1.20655e-01 
   @RHF iter   1:   -76.00458682983191   -1.08299e-01   1.71769e-02 
   @RHF iter   2:   -76.02193471185572   -1.73479e-02   8.17887e-03 DIIS
   @RHF iter   3:   -76.02645456908084   -4.51986e-03   1.24790e-03 DIIS
   @RHF iter   4:   -76.02663354522575   -1.78976e-04   2.83434e-04 DIIS
   @RHF iter   5:   -76.02665225289033   -1.87077e-05   6.91853e-05 DIIS
   @RHF iter   6:   -76.02665362752460   -1.37463e-06   1.15825e-05 DIIS
   @RHF iter   7:   -76.02665366134707   -3.38225e-08   1.21269e-06 DIIS
   @RHF iter   8:   -76.02665366166202   -3.14955e-10   2.12205e-07 DIIS
   @RHF iter   9:   -76.02665366167108   -9.05231e-12   2.61003e-08 DIIS
   @RHF iter  10:   -76.02665366167123   -1.56319e-13   2.34875e-09 DIIS

  ==> Post-Iterations <==

    Orbital Energies [Eh]
    ---------------------

    Doubly Occupied:                                                      

       1A1   -20.550919     2A1    -1.335305     1B2    -0.697799  
       3A1    -0.566090     1B1    -0.492954  

    Virtual:                                                              

       4A1     0.185103     2B2     0.255849     3B2     0.787301  
       5A1     0.851798     6A1     1.163709     2B1     1.200352  
       4B2     1.253479     7A1     1.444918     1A2     1.475588  
       3B1     1.674083     8A1     1.867861     5B2     1.931955  
       6B2     2.446380     9A1     2.483524     4B1     3.283305  
       2A2     3.336169    10A1     3.506961    11A1     3.862825  
       7B2     4.144454  

    Final Occupation by Irrep:
             A1    A2    B1    B2 
    DOCC [     3,    0,    1,    1 ]

  Energy converged.

  @RHF Final Energy:   -76.02665366167123

   => Energetics <=

    Nuclear Repulsion Energy =              9.1681932603875733
    One-Electron Energy =                -123.1035619131077112
    Two-Electron Energy =                  37.9087149910489032
    Total Energy =                        -76.0266536616712472



Properties will be evaluated at   0.000000,   0.000000,   0.000000 [a0]

Properties computed using the SCF density matrix

  Nuclear Dipole Moment: [e a0]
     X:     0.0000      Y:     0.0000      Z:     0.9783

  Electronic Dipole Moment: [e a0]
     X:     0.0000      Y:     0.0000      Z:    -0.1682

  Dipole Moment: [e a0]
     X:     0.0000      Y:     0.0000      Z:     0.8101     Total:     0.8101

  Dipole Moment: [D]
     X:     0.0000      Y:     0.0000      Z:     2.0592     Total:     2.0592


*** tstop() called on LAPTOP-UD8U1GLI at Sun Sep 15 21:58:20 2019
Module time:
	user time   =       0.25 seconds =       0.00 minutes
	system time =       0.05 seconds =       0.00 minutes
	total time  =          0 seconds =       0.00 minutes
Total time:
	user time   =       0.25 seconds =       0.00 minutes
	system time =       0.05 seconds =       0.00 minutes
	total time  =          0 seconds =       0.00 minutes
 MINTS: Wrapper to libmints.
   by Justin Turney

   Calculation information:
      Number of threads:                 1
      Number of atoms:                   3
      Number of AO shells:              12
      Number of SO shells:               9
      Number of primitives:             32
      Number of atomic orbitals:        25
      Number of basis functions:        24

      Number of irreps:                  4
      Integral cutoff                 0.00e+00
      Number of functions per irrep: [  11    2    4    7 ]

 OEINTS: Overlap, kinetic, potential, dipole, and quadrupole integrals
         stored in file 35.

      Computing two-electron integrals...done
      Computed 11671 non-zero two-electron integrals.
        Stored in file 33.


*** tstart() called on LAPTOP-UD8U1GLI
*** at Sun Sep 15 21:58:21 2019


	Wfn Parameters:
	--------------------
	Wavefunction         = CCSD
	Number of irreps     = 4
	Number of MOs        = 24
	Number of active MOs = 24
	AO-Basis             = NONE
	Semicanonical        = false
	Reference            = RHF
	Print Level          = 1

	IRREP	# MOs	# FZDC	# DOCC	# SOCC	# VIRT	# FZVR
	-----	-----	------	------	------	------	------
	 A1	   11	    0	    3	    0	    8	    0
	 A2	   2	    0	    0	    0	    2	    0
	 B1	   4	    0	    1	    0	    3	    0
	 B2	   7	    0	    1	    0	    6	    0
	Transforming integrals...
	IWL integrals will be deleted.
	(OO|OO)...
	Presorting SO-basis two-electron integrals.
	Sorting File: SO Ints (nn|nn) nbuckets = 1
	Transforming the one-electron integrals and constructing Fock matrices
	Starting first half-transformation.
	Sorting half-transformed integrals.
	First half integral transformation complete.
	Starting second half-transformation.
	Two-electron integral transformation complete.
	(OO|OV)...
	Starting second half-transformation.
	Two-electron integral transformation complete.
	(OO|VV)...
	Starting second half-transformation.
	Two-electron integral transformation complete.
	(OV|OO)...
	Starting first half-transformation.
	Sorting half-transformed integrals.
	First half integral transformation complete.
	Starting second half-transformation.
	Two-electron integral transformation complete.
	(OV|OV)...
	Starting second half-transformation.
	Two-electron integral transformation complete.
	(OV|VV)...
	Starting second half-transformation.
	Two-electron integral transformation complete.
	(VV|OO)...
	Starting first half-transformation.
	Sorting half-transformed integrals.
	First half integral transformation complete.
	Starting second half-transformation.
	Two-electron integral transformation complete.
	(VV|OV)...
	Starting second half-transformation.
	Two-electron integral transformation complete.
	(VV|VV)...
	Starting second half-transformation.
	Two-electron integral transformation complete.
	Frozen core energy     =      0.00000000000000

	Size of irrep 0 of <ab|cd> integrals:      0.013 (MW) /      0.102 (MB)
	Size of irrep 1 of <ab|cd> integrals:      0.005 (MW) /      0.037 (MB)
	Size of irrep 2 of <ab|cd> integrals:      0.005 (MW) /      0.041 (MB)
	Size of irrep 3 of <ab|cd> integrals:      0.012 (MW) /      0.093 (MB)
	Total:                                     0.034 (MW) /      0.274 (MB)

	Size of irrep 0 of <ia|bc> integrals:      0.004 (MW) /      0.030 (MB)
	Size of irrep 1 of <ia|bc> integrals:      0.001 (MW) /      0.008 (MB)
	Size of irrep 2 of <ia|bc> integrals:      0.001 (MW) /      0.011 (MB)
	Size of irrep 3 of <ia|bc> integrals:      0.003 (MW) /      0.024 (MB)
	Total:                                     0.009 (MW) /      0.073 (MB)

	Size of irrep 0 of tijab amplitudes:       0.001 (MW) /      0.010 (MB)
	Size of irrep 1 of tijab amplitudes:       0.000 (MW) /      0.001 (MB)
	Size of irrep 2 of tijab amplitudes:       0.000 (MW) /      0.003 (MB)
	Size of irrep 3 of tijab amplitudes:       0.001 (MW) /      0.005 (MB)
	Total:                                     0.002 (MW) /      0.020 (MB)

	Nuclear Rep. energy          =      9.16819326038757
	SCF energy                   =    -76.02665366167123
	One-electron energy          =   -123.10356186011761
	Two-electron energy          =     37.90871493805879
	Reference energy             =    -76.02665366167125

*** tstop() called on LAPTOP-UD8U1GLI at Sun Sep 15 21:58:21 2019
Module time:
	user time   =       0.01 seconds =       0.00 minutes
	system time =       0.22 seconds =       0.00 minutes
	total time  =          0 seconds =       0.00 minutes
Total time:
	user time   =       0.28 seconds =       0.00 minutes
	system time =       0.28 seconds =       0.00 minutes
	total time  =          1 seconds =       0.02 minutes

*** tstart() called on LAPTOP-UD8U1GLI
*** at Sun Sep 15 21:58:21 2019

            **************************
            *                        *
            *        CCENERGY        *
            *                        *
            **************************

    Nuclear Rep. energy (wfn)     =    9.168193260387573
    SCF energy          (wfn)     =  -76.026653661671233
    Reference energy    (file100) =  -76.026653661671247

    Input parameters:
    -----------------
    Wave function   =     CCSD
    Reference wfn   =     RHF
    Brueckner       =     No
    Memory (Mbytes) =     2000.0
    Maxiter         =     50
    R_Convergence   =     1.0e-07
    E_Convergence   =     1.0e-06
    Restart         =     Yes
    DIIS            =     Yes
    AO Basis        =     NONE
    ABCD            =     NEW
    Cache Level     =     2
    Cache Type      =     LOW
    Print Level     =     1
    Num. of threads =     1
    # Amps to Print =     10
    Print MP2 Amps? =     No
    Analyze T2 Amps =     No
    Print Pair Ener =     No
    Local CC        =     No
    SCS-MP2         =     False
    SCSN-MP2        =     False
    SCS-CCSD        =     False

MP2 correlation energy -0.2041547998570769
                Solving CC Amplitude Equations
                ------------------------------
  Iter             Energy              RMS        T1Diag      D1Diag    New D1Diag    D2Diag
  ----     ---------------------    ---------   ----------  ----------  ----------   --------
     0        -0.204154799857077    0.000e+00    0.000000    0.000000    0.000000    0.109718
     1        -0.209082421625768    2.662e-02    0.004037    0.008623    0.008623    0.116642
     2        -0.213047270325496    9.416e-03    0.004774    0.009920    0.009920    0.122003
     3        -0.213460117219701    2.450e-03    0.005208    0.010787    0.010787    0.123222
     4        -0.213471286578160    5.618e-04    0.005249    0.011005    0.011005    0.123418
     5        -0.213482789499945    1.677e-04    0.005272    0.011117    0.011117    0.123452
     6        -0.213480891401533    5.580e-05    0.005281    0.011162    0.011162    0.123445
     7        -0.213480652047103    1.505e-05    0.005284    0.011177    0.011177    0.123443
     8        -0.213480532246105    2.606e-06    0.005284    0.011179    0.011179    0.123443
     9        -0.213480483245488    6.344e-07    0.005284    0.011179    0.011179    0.123443
    10        -0.213480498312591    1.289e-07    0.005284    0.011179    0.011179    0.123443
    11        -0.213480497044624    2.750e-08    0.005284    0.011179    0.011179    0.123443

    Iterations converged.


    Largest TIA Amplitudes:
              2   0         0.0074533734
              4  17         0.0073539099
              4  13        -0.0059320289
              2   5         0.0050186803
              4  15         0.0045914748
              1   2         0.0042640953
              1   0        -0.0038921505
              3  11        -0.0032877774
              3  10        -0.0030764670
              2   1        -0.0029875445

    Largest TIjAb Amplitudes:
      3   3  10  10        -0.0513981938
      4   4  14  14        -0.0361443518
      2   2   2   2        -0.0354093934
      4   4  13  13        -0.0294924786
      2   3   2  10         0.0286089392
      3   2  10   2         0.0286089392
      4   4   1   1        -0.0284156349
      2   2  14  14        -0.0256393898
      3   4  10  15        -0.0227703762
      4   3  15  10        -0.0227703762

    SCF energy       (wfn)                    =  -76.026653661671233
    Reference energy (file100)                =  -76.026653661671247

    Opposite-spin MP2 correlation energy      =   -0.152603869797132
    Same-spin MP2 correlation energy          =   -0.051550930059945
    MP2 correlation energy                    =   -0.204154799857077
      * MP2 total energy                      =  -76.230808461528326

    Opposite-spin CCSD correlation energy     =   -0.167448064985642
    Same-spin CCSD correlation energy         =   -0.046032432117909
    CCSD correlation energy                   =   -0.213480497044624
      * CCSD total energy                     =  -76.240134158715875


*** tstop() called on LAPTOP-UD8U1GLI at Sun Sep 15 21:58:24 2019
Module time:
	user time   =       0.08 seconds =       0.00 minutes
	system time =       0.83 seconds =       0.01 minutes
	total time  =          3 seconds =       0.05 minutes
Total time:
	user time   =       0.36 seconds =       0.01 minutes
	system time =       1.11 seconds =       0.02 minutes
	total time  =          4 seconds =       0.07 minutes

    Psi4 stopped on: Sunday, 15 September 2019 09:58PM
    Psi4 wall time for execution: 0:00:04.09

*** Psi4 exiting successfully. Buy a developer a beer!
