
    -----------------------------------------------------------------------
          Psi4: An Open-Source Ab Initio Electronic Structure Package
                               Psi4 1.2 release

                         Git: Rev {HEAD} 9d4a61c 


    R. M. Parrish, L. A. Burns, D. G. A. Smith, A. C. Simmonett,
    A. E. DePrince III, E. G. Hohenstein, U. Bozkaya, A. Yu. Sokolov,
    R. Di Remigio, R. M. Richard, J. F. Gonthier, A. M. James,
    H. R. McAlexander, A. Kumar, M. Saitow, X. Wang, B. P. Pritchard,
    P. Verma, H. F. Schaefer III, K. Patkowski, R. A. King, E. F. Valeev,
    F. A. Evangelista, J. M. Turney, T. D. Crawford, and C. D. Sherrill,
    J. Chem. Theory Comput. 13(7) pp 3185--3197 (2017).
    (doi: 10.1021/acs.jctc.7b00174)


                         Additional Contributions by
    P. Kraus, H. Kruse, M. H. Lechner, M. C. Schieber, and R. A. Shaw

    -----------------------------------------------------------------------


    Psi4 started on: Tuesday, 10 September 2019 09:35AM

    Process ID: 3520
    Host:       LAPTOP-UD8U1GLI
    PSIDATADIR: /home/sohompaul/psi4conda/share/psi4
    Memory:     500.0 MiB
    Threads:    1
    
  ==> Input File <==

--------------------------------------------------------------------------
memory 1000 mb

molecule {
	C	-0.0126981359	 1.0858041578	 0.0080009958
	H	 0.002150416	-0.0060313176	 0.0019761204
	H	 1.0117308433	 1.4637511618	 0.0002765748
	H	-0.540815069	 1.4475266138	-0.8766437152
	H	-0.5238136345	 1.4379326443	 0.9063972942
units angstrom
}

set basis cc-pVDZ
energy('scf')
--------------------------------------------------------------------------

  Memory set to 953.674 MiB by Python driver.

*** tstart() called on LAPTOP-UD8U1GLI
*** at Tue Sep 10 09:35:26 2019

   => Loading Basis Set <=

    Name: CC-PVDZ
    Role: ORBITAL
    Keyword: BASIS
    atoms 1   entry C          line   138 file /home/sohompaul/psi4conda/share/psi4/basis/cc-pvdz.gbs 
    atoms 2-5 entry H          line    22 file /home/sohompaul/psi4conda/share/psi4/basis/cc-pvdz.gbs 

    There are an even number of electrons - assuming singlet.
    Specify the multiplicity in the molecule input block.


         ---------------------------------------------------------
                                   SCF
            by Justin Turney, Rob Parrish, Andy Simmonett
                             and Daniel Smith
                              RHF Reference
                        1 Threads,    953 MiB Core
         ---------------------------------------------------------

  ==> Geometry <==

    Molecular point group: c1
    Full point group: C1

    Geometry (in Angstrom), charge = 0, multiplicity = 1:

       Center              X                  Y                   Z               Mass       
    ------------   -----------------  -----------------  -----------------  -----------------
         C           -0.000002835223     0.000002359295    -0.000000144026    12.000000000000
         H            0.014845716677    -1.091833116105    -0.006025019426     1.007825032070
         H            1.024426143977     0.377949363295    -0.007724565026     1.007825032070
         H           -0.528119768323     0.361724815295    -0.884644855026     1.007825032070
         H           -0.511118333823     0.352130845795     0.898396154374     1.007825032070

  Running in c1 symmetry.

  Rotational constants: A =      5.26070  B =      5.26064  C =      5.26054 [cm^-1]
  Rotational constants: A = 157711.79902  B = 157709.96942  C = 157706.99448 [MHz]
  Nuclear repulsion =   13.411400633547588

  Charge       = 0
  Multiplicity = 1
  Electrons    = 10
  Nalpha       = 5
  Nbeta        = 5

  ==> Algorithm <==

  SCF Algorithm Type is DF.
  DIIS enabled.
  MOM disabled.
  Fractional occupation disabled.
  Guess Type is SAD.
  Energy threshold   = 1.00e-06
  Density threshold  = 1.00e-06
  Integral threshold = 0.00e+00

  ==> Primary Basis <==

  Basis Set: CC-PVDZ
    Blend: CC-PVDZ
    Number of shells: 18
    Number of basis function: 34
    Number of Cartesian functions: 35
    Spherical Harmonics?: true
    Max angular momentum: 2

   => Loading Basis Set <=

    Name: (CC-PVDZ AUX)
    Role: JKFIT
    Keyword: DF_BASIS_SCF
    atoms 1   entry C          line   121 file /home/sohompaul/psi4conda/share/psi4/basis/cc-pvdz-jkfit.gbs 
    atoms 2-5 entry H          line    51 file /home/sohompaul/psi4conda/share/psi4/basis/cc-pvdz-jkfit.gbs 

  ==> Pre-Iterations <==

   -------------------------------------------------------
    Irrep   Nso     Nmo     Nalpha   Nbeta   Ndocc  Nsocc
   -------------------------------------------------------
     A         34      34       0       0       0       0
   -------------------------------------------------------
    Total      34      34       5       5       5       0
   -------------------------------------------------------

  ==> Integral Setup <==

  ==> MemDFJK: Density-Fitted J/K Matrices <==

    J tasked:                   Yes
    K tasked:                   Yes
    wK tasked:                   No
    OpenMP threads:               1
    Memory (MB):                715
    Algorithm:                 Core
    Schwarz Cutoff:           1E-12
    Mask sparsity (%):       0.0000
    Fitting Condition:        1E-12

   => Auxiliary Basis Set <=

  Basis Set: (CC-PVDZ AUX)
    Blend: CC-PVDZ-JKFIT
    Number of shells: 60
    Number of basis function: 162
    Number of Cartesian functions: 181
    Spherical Harmonics?: true
    Max angular momentum: 3

  Minimum eigenvalue in the overlap matrix is 2.3198283026E-02.
  Using Symmetric Orthogonalization.

  SCF Guess: Superposition of Atomic Densities via on-the-fly atomic UHF.

  ==> Iterations <==

                           Total Energy        Delta E     RMS |[F,P]|

   @DF-RHF iter   0:   -40.30219614616971   -4.03022e+01   5.28597e-02 
   @DF-RHF iter   1:   -40.17203747503172    1.30159e-01   5.31322e-03 
   @DF-RHF iter   2:   -40.19635178693115   -2.43143e-02   1.43691e-03 DIIS
   @DF-RHF iter   3:   -40.19844405389210   -2.09227e-03   4.76123e-04 DIIS
   @DF-RHF iter   4:   -40.19869946794324   -2.55414e-04   1.10800e-04 DIIS
   @DF-RHF iter   5:   -40.19871272338797   -1.32554e-05   2.04087e-05 DIIS
   @DF-RHF iter   6:   -40.19871338626709   -6.62879e-07   2.79857e-06 DIIS
   @DF-RHF iter   7:   -40.19871339749164   -1.12246e-08   3.22525e-07 DIIS

  ==> Post-Iterations <==

    Orbital Energies [Eh]
    ---------------------

    Doubly Occupied:                                                      

       1A    -11.217096     2A     -0.941198     3A     -0.542083  
       4A     -0.542081     5A     -0.542072  

    Virtual:                                                              

       6A      0.192657     7A      0.273659     8A      0.273659  
       9A      0.273659    10A      0.589616    11A      0.589622  
      12A      0.589626    13A      0.888306    14A      0.888310  
      15A      0.888311    16A      0.931281    17A      1.131442  
      18A      1.131449    19A      1.256729    20A      1.684616  
      21A      1.684617    22A      1.684627    23A      1.891637  
      24A      1.891643    25A      1.891648    26A      2.209683  
      27A      2.209687    28A      2.209722    29A      2.540668  
      30A      2.540686    31A      2.743400    32A      2.790700  
      33A      2.790704    34A      2.790710  

    Final Occupation by Irrep:
              A 
    DOCC [     5 ]

  Energy converged.

  @DF-RHF Final Energy:   -40.19871339749164

   => Energetics <=

    Nuclear Repulsion Energy =             13.4114006335475882
    One-Electron Energy =                 -79.6511759642196466
    Two-Electron Energy =                  26.0410619331804156
    Total Energy =                        -40.1987133974916446



Properties will be evaluated at   0.000000,   0.000000,   0.000000 [a0]

Properties computed using the SCF density matrix

  Nuclear Dipole Moment: [e a0]
     X:     0.0000      Y:    -0.0000      Z:     0.0000

  Electronic Dipole Moment: [e a0]
     X:    -0.0000      Y:     0.0000      Z:    -0.0000

  Dipole Moment: [e a0]
     X:     0.0000      Y:    -0.0000      Z:    -0.0000     Total:     0.0000

  Dipole Moment: [D]
     X:     0.0000      Y:    -0.0000      Z:    -0.0000     Total:     0.0000


*** tstop() called on LAPTOP-UD8U1GLI at Tue Sep 10 09:35:26 2019
Module time:
	user time   =       0.37 seconds =       0.01 minutes
	system time =       0.07 seconds =       0.00 minutes
	total time  =          0 seconds =       0.00 minutes
Total time:
	user time   =       0.37 seconds =       0.01 minutes
	system time =       0.07 seconds =       0.00 minutes
	total time  =          0 seconds =       0.00 minutes

    Psi4 stopped on: Tuesday, 10 September 2019 09:35AM
    Psi4 wall time for execution: 0:00:00.54

*** Psi4 exiting successfully. Buy a developer a beer!
