
Host: LAPTOP-UD8U1GLI

Timers On : Tue Sep 10 09:23:21 2019
Timers Off: Tue Sep 10 09:27:05 2019

Wall Time:      223.99 seconds

Total PK formation time     :      4.883u      0.500s      3.329w     23 calls
HF: Form H                  :      0.033u      0.983s      2.909w     71 calls
HF: Form S/X                :      0.033u      0.000s      0.041w     71 calls
HF: Guess                   :      4.800u      2.567s      5.434w     71 calls
SAD Guess                   :      4.783u      2.567s      5.276w     34 calls
HF: Form G                  :     66.833u      3.533s     43.498w    653 calls
JK: D                       :      0.000u      0.000s      0.014w    718 calls
JK: USO2AO                  :      0.067u      0.000s      0.054w    643 calls
JK: JK                      :     34.750u      1.183s     22.759w    718 calls
PK computes JK              :      0.433u      0.000s      0.351w    242 calls
DFH: compute_JK()           :      3.067u      0.250s      2.035w    189 calls
DFH: Grabbing AOs           :      0.000u      0.033s      0.001w    189 calls
DFH: compute_J              :      0.583u      0.000s      0.386w    189 calls
DFH: compute_K              :      2.483u      0.133s      1.636w    189 calls
JK: J                       :      0.133u      0.033s      0.119w    284 calls
JK: J1                      :      0.050u      0.000s      0.055w    286 calls
JK: J2                      :      0.083u      0.000s      0.054w    286 calls
JK: K                       :      2.417u      0.050s      1.531w    280 calls
JK: K1                      :      1.967u      0.017s      1.291w    292 calls
JK: K2                      :      0.450u      0.033s      0.234w    282 calls
JK: wK                      :      0.000u      0.000s      0.008w     24 calls
JK: wK1                     :      0.000u      0.000s      0.007w     48 calls
JK: wK2                     :      0.000u      0.000s      0.001w     24 calls
JK: AO2USO                  :      0.083u      0.000s      0.064w    643 calls
RV: Form V                  :     28.133u      2.317s     18.587w     79 calls
Properties                  :     14.383u      0.400s      8.942w  50526 calls
Functional                  :     10.633u      0.333s      6.990w  50526 calls
V_xc                        :      6.083u      0.583s      3.978w  50526 calls
RKS: Form V                 :      3.800u      0.133s      2.397w      8 calls
HF: Form F                  :      0.000u      0.000s      0.033w    653 calls
HF: DIIS                    :      0.250u      1.067s      1.179w    653 calls
DIISManager::add_entry      :      0.050u      0.700s      0.798w    609 calls
DIISManager::extrapolate    :      0.150u      0.367s      0.286w    538 calls
bMatrix setup               :      0.067u      0.283s      0.139w    538 calls
bMatrix pseudoinverse       :      0.033u      0.000s      0.033w    538 calls
New vector                  :      0.050u      0.083s      0.099w    538 calls
HF: Form C                  :      0.400u      0.050s      0.351w    653 calls
HF: Form D                  :      0.033u      0.000s      0.011w    653 calls
V: Grid                     :      1.700u      0.100s      1.119w     12 calls
DFH: initialize()           :      7.133u      1.433s      5.423w     20 calls
DFH: sparsity prep          :      0.383u      0.050s      0.423w     20 calls
DFH: AO Construction        :      3.700u      0.100s      2.250w     20 calls
DFH: AO-Met. Contraction    :      1.017u      0.550s      0.989w     20 calls
JK: (A|mn)                  :      1.583u      0.000s      0.957w     12 calls
JK: (A|Q)^-1/2              :      0.617u      0.000s      0.377w     12 calls
JK: (Q|mn)                  :      0.183u      0.000s      0.108w     12 calls
JK: (A|mn)^L                :      0.033u      0.000s      0.022w      2 calls
JK: (A|Q)^-1                :      0.117u      0.000s      0.073w      2 calls
JK: (Q|mn)^L                :      0.000u      0.000s      0.001w      2 calls
JK: (A|mn)^R                :      0.067u      0.000s      0.032w      2 calls
Grad: V T Perturb           :      0.000u      0.000s      0.002w      1 calls
Grad: S                     :      0.000u      0.000s      0.000w      1 calls
Grad: JK                    :      0.067u      0.067s      0.099w      1 calls
JKGrad: Amn                 :      0.033u      0.000s      0.011w      1 calls
JKGrad: Awmn                :      0.000u      0.000s      0.000w      1 calls
JKGrad: AB                  :      0.000u      0.033s      0.018w      1 calls
JKGrad: UV                  :      0.000u      0.000s      0.000w      1 calls
JKGrad: ABx                 :      0.000u      0.000s      0.014w      1 calls
JKGrad: Amnx                :      0.017u      0.000s      0.011w      1 calls
Grad: XC                    :      0.000u      0.000s      0.000w      1 calls
CD: cholesky decomposition  :      0.750u      0.000s      0.470w      1 calls
CD: schwarz                 :      0.017u      0.000s      0.001w      1 calls
DFMP2 Singles               :      0.000u      0.000s      0.003w     11 calls
DFMP2 Aia                   :      3.683u      0.467s      2.588w     11 calls
DFMP2 (A|mn)                :      2.483u      0.000s      1.490w     11 calls
DFMP2 (A|mn)C_mi            :      0.050u      0.000s      0.032w     11 calls
DFMP2 (A|mi)C_na            :      0.033u      0.000s      0.019w     11 calls
DFMP2 Aia Write             :      0.000u      0.017s      0.133w     11 calls
DFMP2 iaQ                   :      0.033u      0.067s      0.098w      2 calls
DFMP2 Metric                :      0.500u      0.000s      0.389w     11 calls
DFMP2 Aia Read              :      0.000u      0.050s      0.038w     11 calls
DFMP2 (Q|A)(A|ia)           :      0.100u      0.000s      0.060w     13 calls
DFMP2 Qia Write             :      0.000u      0.000s      0.012w     11 calls
DFMP2 Qia Read              :      0.000u      0.000s      0.010w     24 calls
DFMP2 Bia Write             :      0.000u      0.000s      0.001w      2 calls
DFMP2 aiQ                   :      0.017u      0.017s      0.036w      2 calls
DFMP2 Tij                   :      0.000u      0.033s      0.032w      2 calls
DFMP2 Cia Read              :      0.000u      0.000s      0.000w      4 calls
DFMP2 I                     :      0.000u      0.000s      0.000w      4 calls
DFMP2 T2                    :      0.000u      0.000s      0.000w      4 calls
DFMP2 G                     :      0.000u      0.000s      0.000w      2 calls
DFMP2 Pab                   :      0.000u      0.000s      0.000w      2 calls
DFMP2 Gia Write             :      0.000u      0.000s      0.000w      2 calls
DFMP2 Tab                   :      0.000u      0.067s      0.035w      2 calls
DFMP2 Qai Read              :      0.000u      0.000s      0.000w      4 calls
DFMP2 Pij                   :      0.000u      0.000s      0.000w      2 calls
DFMP2 gamma                 :      0.000u      0.050s      0.034w      2 calls
DFMP2 Gia Read              :      0.000u      0.000s      0.000w      4 calls
DFMP2 g                     :      0.000u      0.000s      0.000w      2 calls
DFMP2 Gia                   :      0.000u      0.033s      0.036w      2 calls
DFMP2 aiG Write             :      0.000u      0.000s      0.002w      2 calls
DFMP2 AB^x                  :      0.017u      0.017s      0.064w      2 calls
DFMP2 Amn^x                 :      0.267u      0.000s      0.183w      2 calls
DFMP2 L                     :      0.117u      0.033s      0.117w      2 calls
DFMP2 P                     :      0.000u      0.017s      0.024w      2 calls
DFMP2 W                     :      0.000u      0.000s      0.024w      2 calls
DFMP2 Z                     :      0.150u      0.033s      0.164w      2 calls
DFMP2 Qia                   :      0.567u      0.117s      0.651w      9 calls
DFMP2 Energy                :      0.300u      0.100s      0.360w      9 calls
DF Integrals                :      0.833u      0.383s      0.804w      2 calls
W Integrals                 :      0.000u      0.000s      0.002w      2 calls
Elst10                      :      0.000u      0.000s      0.000w      2 calls
Exch10                      :      0.000u      0.000s      0.003w      2 calls
Exch10 S^2                  :      0.000u      0.000s      0.002w      2 calls
Ind20                       :      0.350u      0.167s      0.293w      2 calls
Exch-Ind20                  :      0.000u      0.000s      0.015w      2 calls
Exch-Disp20 N^5             :      0.100u      0.333s      0.278w      2 calls
Exch-Disp20 N^4             :      0.483u      0.400s      0.508w      2 calls
ABCD:new                    :      0.217u      0.300s      0.361w     27 calls
ABCD:S                      :      0.000u      0.000s      0.006w     27 calls
ABCD:A                      :      0.000u      0.000s      0.006w     27 calls
ABCD:axpy                   :      0.217u      0.300s      0.327w     27 calls
CIWave: CIvect write        :      0.000u      0.000s      0.026w    648 calls
CIWave: CIvect read         :      0.033u      0.050s      0.085w   3449 calls
CIWave: s2                  :      0.000u      0.000s      0.063w    406 calls
CIWave: s3                  :      0.083u      0.083s      0.086w   1631 calls
CIWave: s3_mt               :      0.067u      0.050s      0.033w   1827 calls
CIWave: s1                  :      0.000u      0.000s      0.001w    105 calls
CIWave: opdm                :      0.000u      0.000s      0.002w     12 calls
CIWave: MCSCF integral transform:      0.333u      0.250s      1.807w     11 calls
CIWave: TPDM                :      0.000u      0.000s      0.005w     11 calls
CIWave: TPDM Block          :      0.000u      0.000s      0.002w    176 calls
CIWave: TPDM Reorder        :      0.000u      0.000s      0.000w     11 calls
SOMCSCF: Compute Gradient   :      0.067u      0.000s      0.362w     10 calls
SOMCSCF: Q matrix           :      0.033u      0.200s      0.832w     16 calls
SOMCSCF: Approximate hessian:      0.000u      0.000s      0.000w     11 calls
SOMCSCF: Rotated fock       :      0.083u      0.283s      0.997w      6 calls
SOMCSCF: Qk matrix          :      0.083u      0.283s      0.980w      6 calls

-----------------------------------------------------------
Total PK formation time     :      4.883u      0.500s      3.329w     23 calls
HF: Form H                  :      0.033u      0.983s      2.909w     71 calls
HF: Form S/X                :      0.033u      0.000s      0.041w     71 calls
HF: Guess                   :      4.800u      2.567s      5.434w     71 calls
| SAD Guess                 :      4.783u      2.567s      5.276w     34 calls
HF: Form G                  :     66.833u      3.533s     43.498w    653 calls
| JK: D                     :      0.000u      0.000s      0.012w    653 calls
| JK: USO2AO                :      0.067u      0.000s      0.052w    599 calls
| JK: JK                    :     34.717u      1.017s     22.299w    653 calls
| | PK computes JK          :      0.400u      0.000s      0.322w    215 calls
| | DFH: compute_JK()       :      3.067u      0.250s      2.035w    189 calls
| | | DFH: Grabbing AOs     :      0.000u      0.033s      0.001w    189 calls
| | | DFH: compute_J        :      0.583u      0.000s      0.386w    189 calls
| | | DFH: compute_K        :      2.483u      0.133s      1.636w    189 calls
| | JK: J                   :      0.133u      0.033s      0.117w    267 calls
| | | JK: J1                :      0.050u      0.000s      0.055w    267 calls
| | | JK: J2                :      0.083u      0.000s      0.054w    267 calls
| | JK: K                   :      2.417u      0.033s      1.519w    267 calls
| | | JK: K1                :      1.967u      0.000s      1.280w    267 calls
| | | JK: K2                :      0.450u      0.033s      0.233w    267 calls
| | JK: wK                  :      0.000u      0.000s      0.008w     24 calls
| | | JK: wK1               :      0.000u      0.000s      0.007w     48 calls
| | | JK: wK2               :      0.000u      0.000s      0.001w     24 calls
| JK: AO2USO                :      0.083u      0.000s      0.063w    599 calls
| RV: Form V                :     28.133u      2.317s     18.587w     79 calls
| | Properties              :     13.017u      0.367s      8.236w  45942 calls
| | Functional              :      8.950u      0.333s      5.852w  45942 calls
| | V_xc                    :      5.417u      0.567s      3.529w  45942 calls
| RKS: Form V               :      3.800u      0.133s      2.397w      8 calls
| | Properties              :      1.367u      0.033s      0.706w   4584 calls
| | Functional              :      1.683u      0.000s      1.137w   4584 calls
| | V_xc                    :      0.667u      0.017s      0.449w   4584 calls
HF: Form F                  :      0.000u      0.000s      0.033w    653 calls
HF: DIIS                    :      0.250u      1.067s      1.179w    653 calls
| DIISManager::add_entry    :      0.050u      0.700s      0.798w    609 calls
| DIISManager::extrapolate  :      0.150u      0.367s      0.286w    538 calls
| | bMatrix setup           :      0.067u      0.283s      0.139w    538 calls
| | bMatrix pseudoinverse   :      0.033u      0.000s      0.033w    538 calls
| | New vector              :      0.050u      0.083s      0.099w    538 calls
HF: Form C                  :      0.400u      0.050s      0.351w    653 calls
HF: Form D                  :      0.033u      0.000s      0.011w    653 calls
JK: D                       :      0.000u      0.000s      0.001w     26 calls
JK: JK                      :      0.000u      0.167s      0.420w     26 calls
| JK: J                     :      0.000u      0.000s      0.001w      5 calls
| | JK: J1                  :      0.000u      0.000s      0.001w      5 calls
| | JK: J2                  :      0.000u      0.000s      0.000w      5 calls
| JK: K                     :      0.000u      0.017s      0.003w      1 calls
| | JK: K1                  :      0.000u      0.017s      0.002w      1 calls
| | JK: K2                  :      0.000u      0.000s      0.000w      1 calls
V: Grid                     :      1.700u      0.100s      1.119w     12 calls
DFH: initialize()           :      7.133u      1.433s      5.423w     20 calls
| DFH: sparsity prep        :      0.383u      0.050s      0.423w     20 calls
| DFH: AO Construction      :      3.700u      0.100s      2.250w     20 calls
| DFH: AO-Met. Contraction  :      1.017u      0.550s      0.989w     20 calls
JK: (A|mn)                  :      1.583u      0.000s      0.951w     10 calls
JK: (A|Q)^-1/2              :      0.567u      0.000s      0.347w     10 calls
JK: (Q|mn)                  :      0.183u      0.000s      0.108w     10 calls
JK: (A|mn)^L                :      0.033u      0.000s      0.022w      2 calls
JK: (A|Q)^-1                :      0.117u      0.000s      0.073w      2 calls
JK: (Q|mn)^L                :      0.000u      0.000s      0.001w      2 calls
JK: (A|mn)^R                :      0.067u      0.000s      0.032w      2 calls
Grad: V T Perturb           :      0.000u      0.000s      0.002w      1 calls
Grad: S                     :      0.000u      0.000s      0.000w      1 calls
Grad: JK                    :      0.067u      0.067s      0.099w      1 calls
| JKGrad: Amn               :      0.033u      0.000s      0.011w      1 calls
| JKGrad: Awmn              :      0.000u      0.000s      0.000w      1 calls
| JKGrad: AB                :      0.000u      0.033s      0.018w      1 calls
| JKGrad: UV                :      0.000u      0.000s      0.000w      1 calls
| JKGrad: ABx               :      0.000u      0.000s      0.014w      1 calls
| JKGrad: Amnx              :      0.017u      0.000s      0.011w      1 calls
Grad: XC                    :      0.000u      0.000s      0.000w      1 calls
CD: cholesky decomposition  :      0.750u      0.000s      0.470w      1 calls
CD: schwarz                 :      0.017u      0.000s      0.001w      1 calls
DFMP2 Singles               :      0.000u      0.000s      0.003w     11 calls
DFMP2 Aia                   :      3.683u      0.467s      2.588w     11 calls
| DFMP2 (A|mn)              :      2.483u      0.000s      1.490w     11 calls
| DFMP2 (A|mn)C_mi          :      0.050u      0.000s      0.032w     11 calls
| DFMP2 (A|mi)C_na          :      0.033u      0.000s      0.019w     11 calls
| DFMP2 Aia Write           :      0.000u      0.017s      0.133w     11 calls
DFMP2 iaQ                   :      0.033u      0.067s      0.098w      2 calls
| DFMP2 Metric              :      0.033u      0.000s      0.037w      2 calls
| DFMP2 Aia Read            :      0.000u      0.000s      0.002w      2 calls
| DFMP2 (Q|A)(A|ia)         :      0.000u      0.000s      0.000w      4 calls
| DFMP2 Qia Write           :      0.000u      0.000s      0.000w      2 calls
| DFMP2 Qia Read            :      0.000u      0.000s      0.000w      2 calls
| DFMP2 Bia Write           :      0.000u      0.000s      0.001w      2 calls
DFMP2 aiQ                   :      0.017u      0.017s      0.036w      2 calls
DFMP2 Tij                   :      0.000u      0.033s      0.032w      2 calls
| DFMP2 Qia Read            :      0.000u      0.000s      0.000w      4 calls
| DFMP2 Cia Read            :      0.000u      0.000s      0.000w      2 calls
| DFMP2 I                   :      0.000u      0.000s      0.000w      2 calls
| DFMP2 T2                  :      0.000u      0.000s      0.000w      2 calls
| DFMP2 G                   :      0.000u      0.000s      0.000w      2 calls
| DFMP2 Pab                 :      0.000u      0.000s      0.000w      2 calls
| DFMP2 Gia Write           :      0.000u      0.000s      0.000w      2 calls
DFMP2 Tab                   :      0.000u      0.067s      0.035w      2 calls
| DFMP2 Qai Read            :      0.000u      0.000s      0.000w      4 calls
| DFMP2 I                   :      0.000u      0.000s      0.000w      2 calls
| DFMP2 T2                  :      0.000u      0.000s      0.000w      2 calls
| DFMP2 Pij                 :      0.000u      0.000s      0.000w      2 calls
DFMP2 gamma                 :      0.000u      0.050s      0.034w      2 calls
| DFMP2 Gia Read            :      0.000u      0.000s      0.000w      2 calls
| DFMP2 Cia Read            :      0.000u      0.000s      0.000w      2 calls
| DFMP2 g                   :      0.000u      0.000s      0.000w      2 calls
DFMP2 Gia                   :      0.000u      0.033s      0.036w      2 calls
| DFMP2 Gia Read            :      0.000u      0.000s      0.000w      2 calls
| DFMP2 aiG Write           :      0.000u      0.000s      0.002w      2 calls
DFMP2 AB^x                  :      0.017u      0.017s      0.064w      2 calls
DFMP2 Amn^x                 :      0.267u      0.000s      0.183w      2 calls
DFMP2 L                     :      0.117u      0.033s      0.117w      2 calls
DFMP2 P                     :      0.000u      0.017s      0.024w      2 calls
DFMP2 W                     :      0.000u      0.000s      0.024w      2 calls
DFMP2 Z                     :      0.150u      0.033s      0.164w      2 calls
| JK: (A|mn)                :      0.000u      0.000s      0.006w      2 calls
| JK: (A|Q)^-1/2            :      0.050u      0.000s      0.030w      2 calls
| JK: (Q|mn)                :      0.000u      0.000s      0.000w      2 calls
| JK: D                     :      0.000u      0.000s      0.000w     12 calls
| JK: USO2AO                :      0.000u      0.000s      0.000w     12 calls
| JK: JK                    :      0.000u      0.000s      0.010w     12 calls
| | JK: J                   :      0.000u      0.000s      0.001w     12 calls
| | | JK: J1                :      0.000u      0.000s      0.000w     14 calls
| | | JK: J2                :      0.000u      0.000s      0.000w     14 calls
| | JK: K                   :      0.000u      0.000s      0.009w     12 calls
| | | JK: K1                :      0.000u      0.000s      0.008w     24 calls
| | | JK: K2                :      0.000u      0.000s      0.001w     14 calls
| JK: AO2USO                :      0.000u      0.000s      0.000w     12 calls
DFMP2 Qia                   :      0.567u      0.117s      0.651w      9 calls
| DFMP2 Metric              :      0.467u      0.000s      0.352w      9 calls
| DFMP2 Aia Read            :      0.000u      0.050s      0.036w      9 calls
| DFMP2 (Q|A)(A|ia)         :      0.100u      0.000s      0.060w      9 calls
| DFMP2 Qia Write           :      0.000u      0.000s      0.012w      9 calls
DFMP2 Energy                :      0.300u      0.100s      0.360w      9 calls
| DFMP2 Qia Read            :      0.000u      0.000s      0.010w     18 calls
JK: USO2AO                  :      0.000u      0.000s      0.000w      5 calls
JK: AO2USO                  :      0.000u      0.000s      0.000w      5 calls
DF Integrals                :      0.833u      0.383s      0.804w      2 calls
W Integrals                 :      0.000u      0.000s      0.002w      2 calls
Elst10                      :      0.000u      0.000s      0.000w      2 calls
Exch10                      :      0.000u      0.000s      0.003w      2 calls
Exch10 S^2                  :      0.000u      0.000s      0.002w      2 calls
Ind20                       :      0.350u      0.167s      0.293w      2 calls
Exch-Ind20                  :      0.000u      0.000s      0.015w      2 calls
Exch-Disp20 N^5             :      0.100u      0.333s      0.278w      2 calls
Exch-Disp20 N^4             :      0.483u      0.400s      0.508w      2 calls
ABCD:new                    :      0.217u      0.300s      0.361w     27 calls
| ABCD:S                    :      0.000u      0.000s      0.006w     27 calls
| ABCD:A                    :      0.000u      0.000s      0.006w     27 calls
| ABCD:axpy                 :      0.217u      0.300s      0.327w     27 calls
CIWave: CIvect write        :      0.000u      0.000s      0.026w    648 calls
CIWave: CIvect read         :      0.033u      0.050s      0.083w   3403 calls
CIWave: s2                  :      0.000u      0.000s      0.063w    406 calls
CIWave: s3                  :      0.083u      0.083s      0.086w   1631 calls
| CIWave: s3_mt             :      0.067u      0.050s      0.033w   1827 calls
CIWave: s1                  :      0.000u      0.000s      0.001w    105 calls
CIWave: opdm                :      0.000u      0.000s      0.002w     12 calls
| CIWave: CIvect read       :      0.000u      0.000s      0.001w     24 calls
CIWave: MCSCF integral transform:      0.333u      0.250s      1.807w     11 calls
| JK: D                     :      0.000u      0.000s      0.000w     11 calls
| JK: USO2AO                :      0.000u      0.000s      0.001w     11 calls
| JK: JK                    :      0.000u      0.000s      0.002w     11 calls
| | PK computes JK          :      0.000u      0.000s      0.001w     11 calls
| JK: AO2USO                :      0.000u      0.000s      0.000w     11 calls
CIWave: TPDM                :      0.000u      0.000s      0.005w     11 calls
| CIWave: CIvect read       :      0.000u      0.000s      0.001w     22 calls
| CIWave: TPDM Block        :      0.000u      0.000s      0.002w    176 calls
| CIWave: TPDM Reorder      :      0.000u      0.000s      0.000w     11 calls
SOMCSCF: Compute Gradient   :      0.067u      0.000s      0.362w     10 calls
| JK: D                     :      0.000u      0.000s      0.000w     10 calls
| JK: USO2AO                :      0.000u      0.000s      0.001w     10 calls
| JK: JK                    :      0.033u      0.000s      0.013w     10 calls
| | PK computes JK          :      0.033u      0.000s      0.013w     10 calls
| JK: AO2USO                :      0.000u      0.000s      0.000w     10 calls
| SOMCSCF: Q matrix         :      0.033u      0.000s      0.346w     10 calls
SOMCSCF: Approximate hessian:      0.000u      0.000s      0.000w     11 calls
SOMCSCF: Rotated fock       :      0.083u      0.283s      0.997w      6 calls
| JK: D                     :      0.000u      0.000s      0.000w      6 calls
| JK: USO2AO                :      0.000u      0.000s      0.000w      6 calls
| JK: JK                    :      0.000u      0.000s      0.015w      6 calls
| | PK computes JK          :      0.000u      0.000s      0.015w      6 calls
| JK: AO2USO                :      0.000u      0.000s      0.000w      6 calls
| SOMCSCF: Qk matrix        :      0.083u      0.283s      0.980w      6 calls
| | SOMCSCF: Q matrix       :      0.000u      0.200s      0.486w      6 calls

***********************************************************

Host: LAPTOP-UD8U1GLI

Timers On : Tue Sep 10 09:35:25 2019
Timers Off: Tue Sep 10 09:35:26 2019

Wall Time:        1.30 seconds

DFH: initialize()           :      0.050u      0.000s      0.056w      1 calls
DFH: sparsity prep          :      0.017u      0.000s      0.011w      1 calls
DFH: AO Construction        :      0.033u      0.000s      0.009w      1 calls
DFH: AO-Met. Contraction    :      0.000u      0.000s      0.003w      1 calls
HF: Form H                  :      0.000u      0.000s      0.020w      1 calls
HF: Form S/X                :      0.000u      0.000s      0.000w      1 calls
HF: Guess                   :      0.100u      0.033s      0.078w      1 calls
SAD Guess                   :      0.067u      0.033s      0.076w      1 calls
HF: Form G                  :      0.033u      0.000s      0.003w      8 calls
JK: D                       :      0.000u      0.000s      0.000w      8 calls
JK: USO2AO                  :      0.000u      0.000s      0.000w      8 calls
JK: JK                      :      0.033u      0.000s      0.002w      8 calls
DFH: compute_JK()           :      0.033u      0.000s      0.002w      8 calls
DFH: Grabbing AOs           :      0.000u      0.000s      0.000w      8 calls
DFH: compute_J              :      0.000u      0.000s      0.001w      8 calls
DFH: compute_K              :      0.033u      0.000s      0.002w      8 calls
JK: AO2USO                  :      0.000u      0.000s      0.000w      8 calls
HF: Form F                  :      0.000u      0.000s      0.000w      8 calls
HF: DIIS                    :      0.000u      0.000s      0.006w      8 calls
DIISManager::add_entry      :      0.000u      0.000s      0.004w      7 calls
DIISManager::extrapolate    :      0.000u      0.000s      0.001w      6 calls
bMatrix setup               :      0.000u      0.000s      0.000w      6 calls
bMatrix pseudoinverse       :      0.000u      0.000s      0.000w      6 calls
New vector                  :      0.000u      0.000s      0.000w      6 calls
HF: Form C                  :      0.000u      0.000s      0.001w      8 calls
HF: Form D                  :      0.000u      0.000s      0.000w      8 calls

-----------------------------------------------------------
DFH: initialize()           :      0.050u      0.000s      0.056w      1 calls
| DFH: sparsity prep        :      0.017u      0.000s      0.011w      1 calls
| DFH: AO Construction      :      0.033u      0.000s      0.009w      1 calls
| DFH: AO-Met. Contraction  :      0.000u      0.000s      0.003w      1 calls
HF: Form H                  :      0.000u      0.000s      0.020w      1 calls
HF: Form S/X                :      0.000u      0.000s      0.000w      1 calls
HF: Guess                   :      0.100u      0.033s      0.078w      1 calls
| SAD Guess                 :      0.067u      0.033s      0.076w      1 calls
HF: Form G                  :      0.033u      0.000s      0.003w      8 calls
| JK: D                     :      0.000u      0.000s      0.000w      8 calls
| JK: USO2AO                :      0.000u      0.000s      0.000w      8 calls
| JK: JK                    :      0.033u      0.000s      0.002w      8 calls
| | DFH: compute_JK()       :      0.033u      0.000s      0.002w      8 calls
| | | DFH: Grabbing AOs     :      0.000u      0.000s      0.000w      8 calls
| | | DFH: compute_J        :      0.000u      0.000s      0.001w      8 calls
| | | DFH: compute_K        :      0.033u      0.000s      0.002w      8 calls
| JK: AO2USO                :      0.000u      0.000s      0.000w      8 calls
HF: Form F                  :      0.000u      0.000s      0.000w      8 calls
HF: DIIS                    :      0.000u      0.000s      0.006w      8 calls
| DIISManager::add_entry    :      0.000u      0.000s      0.004w      7 calls
| DIISManager::extrapolate  :      0.000u      0.000s      0.001w      6 calls
| | bMatrix setup           :      0.000u      0.000s      0.000w      6 calls
| | bMatrix pseudoinverse   :      0.000u      0.000s      0.000w      6 calls
| | New vector              :      0.000u      0.000s      0.000w      6 calls
HF: Form C                  :      0.000u      0.000s      0.001w      8 calls
HF: Form D                  :      0.000u      0.000s      0.000w      8 calls

***********************************************************

Host: LAPTOP-UD8U1GLI

Timers On : Tue Sep 10 09:39:21 2019
Timers Off: Tue Sep 10 09:39:22 2019

Wall Time:        1.21 seconds

DFH: initialize()           :      0.067u      0.033s      0.045w      1 calls
DFH: sparsity prep          :      0.033u      0.000s      0.010w      1 calls
DFH: AO Construction        :      0.000u      0.000s      0.003w      1 calls
DFH: AO-Met. Contraction    :      0.000u      0.000s      0.001w      1 calls
HF: Form H                  :      0.000u      0.000s      0.020w      1 calls
HF: Form S/X                :      0.000u      0.000s      0.000w      1 calls
HF: Guess                   :      0.100u      0.000s      0.069w      1 calls
SAD Guess                   :      0.083u      0.000s      0.067w      1 calls
HF: Form G                  :      0.000u      0.000s      0.002w      9 calls
JK: D                       :      0.000u      0.000s      0.000w      9 calls
JK: USO2AO                  :      0.000u      0.000s      0.000w      9 calls
JK: JK                      :      0.000u      0.000s      0.001w      9 calls
DFH: compute_JK()           :      0.000u      0.000s      0.001w      9 calls
DFH: Grabbing AOs           :      0.000u      0.000s      0.000w      9 calls
DFH: compute_J              :      0.000u      0.000s      0.000w      9 calls
DFH: compute_K              :      0.000u      0.000s      0.001w      9 calls
JK: AO2USO                  :      0.000u      0.000s      0.000w      9 calls
HF: Form F                  :      0.000u      0.000s      0.000w      9 calls
HF: DIIS                    :      0.000u      0.000s      0.006w      9 calls
DIISManager::add_entry      :      0.000u      0.000s      0.004w      8 calls
DIISManager::extrapolate    :      0.000u      0.000s      0.001w      7 calls
bMatrix setup               :      0.000u      0.000s      0.000w      7 calls
bMatrix pseudoinverse       :      0.000u      0.000s      0.000w      7 calls
New vector                  :      0.000u      0.000s      0.000w      7 calls
HF: Form C                  :      0.000u      0.000s      0.000w      9 calls
HF: Form D                  :      0.000u      0.000s      0.000w      9 calls

-----------------------------------------------------------
DFH: initialize()           :      0.067u      0.033s      0.045w      1 calls
| DFH: sparsity prep        :      0.033u      0.000s      0.010w      1 calls
| DFH: AO Construction      :      0.000u      0.000s      0.003w      1 calls
| DFH: AO-Met. Contraction  :      0.000u      0.000s      0.001w      1 calls
HF: Form H                  :      0.000u      0.000s      0.020w      1 calls
HF: Form S/X                :      0.000u      0.000s      0.000w      1 calls
HF: Guess                   :      0.100u      0.000s      0.069w      1 calls
| SAD Guess                 :      0.083u      0.000s      0.067w      1 calls
HF: Form G                  :      0.000u      0.000s      0.002w      9 calls
| JK: D                     :      0.000u      0.000s      0.000w      9 calls
| JK: USO2AO                :      0.000u      0.000s      0.000w      9 calls
| JK: JK                    :      0.000u      0.000s      0.001w      9 calls
| | DFH: compute_JK()       :      0.000u      0.000s      0.001w      9 calls
| | | DFH: Grabbing AOs     :      0.000u      0.000s      0.000w      9 calls
| | | DFH: compute_J        :      0.000u      0.000s      0.000w      9 calls
| | | DFH: compute_K        :      0.000u      0.000s      0.001w      9 calls
| JK: AO2USO                :      0.000u      0.000s      0.000w      9 calls
HF: Form F                  :      0.000u      0.000s      0.000w      9 calls
HF: DIIS                    :      0.000u      0.000s      0.006w      9 calls
| DIISManager::add_entry    :      0.000u      0.000s      0.004w      8 calls
| DIISManager::extrapolate  :      0.000u      0.000s      0.001w      7 calls
| | bMatrix setup           :      0.000u      0.000s      0.000w      7 calls
| | bMatrix pseudoinverse   :      0.000u      0.000s      0.000w      7 calls
| | New vector              :      0.000u      0.000s      0.000w      7 calls
HF: Form C                  :      0.000u      0.000s      0.000w      9 calls
HF: Form D                  :      0.000u      0.000s      0.000w      9 calls

***********************************************************

Host: LAPTOP-UD8U1GLI

Timers On : Tue Sep 10 09:44:58 2019
Timers Off: Tue Sep 10 09:44:59 2019

Wall Time:        1.21 seconds

DFH: initialize()           :      0.083u      0.000s      0.045w      1 calls
DFH: sparsity prep          :      0.017u      0.000s      0.010w      1 calls
DFH: AO Construction        :      0.033u      0.000s      0.004w      1 calls
DFH: AO-Met. Contraction    :      0.000u      0.000s      0.001w      1 calls
HF: Form H                  :      0.000u      0.000s      0.020w      1 calls
HF: Form S/X                :      0.000u      0.000s      0.000w      1 calls
HF: Guess                   :      0.067u      0.033s      0.069w      1 calls
SAD Guess                   :      0.067u      0.033s      0.068w      1 calls
HF: Form G                  :      0.000u      0.000s      0.002w      9 calls
JK: D                       :      0.000u      0.000s      0.000w      9 calls
JK: USO2AO                  :      0.000u      0.000s      0.000w      9 calls
JK: JK                      :      0.000u      0.000s      0.001w      9 calls
DFH: compute_JK()           :      0.000u      0.000s      0.001w      9 calls
DFH: Grabbing AOs           :      0.000u      0.000s      0.000w      9 calls
DFH: compute_J              :      0.000u      0.000s      0.000w      9 calls
DFH: compute_K              :      0.000u      0.000s      0.001w      9 calls
JK: AO2USO                  :      0.000u      0.000s      0.000w      9 calls
HF: Form F                  :      0.000u      0.000s      0.000w      9 calls
HF: DIIS                    :      0.000u      0.000s      0.007w      9 calls
DIISManager::add_entry      :      0.000u      0.000s      0.006w      8 calls
DIISManager::extrapolate    :      0.000u      0.000s      0.001w      7 calls
bMatrix setup               :      0.000u      0.000s      0.000w      7 calls
bMatrix pseudoinverse       :      0.000u      0.000s      0.000w      7 calls
New vector                  :      0.000u      0.000s      0.000w      7 calls
HF: Form C                  :      0.000u      0.000s      0.000w      9 calls
HF: Form D                  :      0.000u      0.000s      0.000w      9 calls

-----------------------------------------------------------
DFH: initialize()           :      0.083u      0.000s      0.045w      1 calls
| DFH: sparsity prep        :      0.017u      0.000s      0.010w      1 calls
| DFH: AO Construction      :      0.033u      0.000s      0.004w      1 calls
| DFH: AO-Met. Contraction  :      0.000u      0.000s      0.001w      1 calls
HF: Form H                  :      0.000u      0.000s      0.020w      1 calls
HF: Form S/X                :      0.000u      0.000s      0.000w      1 calls
HF: Guess                   :      0.067u      0.033s      0.069w      1 calls
| SAD Guess                 :      0.067u      0.033s      0.068w      1 calls
HF: Form G                  :      0.000u      0.000s      0.002w      9 calls
| JK: D                     :      0.000u      0.000s      0.000w      9 calls
| JK: USO2AO                :      0.000u      0.000s      0.000w      9 calls
| JK: JK                    :      0.000u      0.000s      0.001w      9 calls
| | DFH: compute_JK()       :      0.000u      0.000s      0.001w      9 calls
| | | DFH: Grabbing AOs     :      0.000u      0.000s      0.000w      9 calls
| | | DFH: compute_J        :      0.000u      0.000s      0.000w      9 calls
| | | DFH: compute_K        :      0.000u      0.000s      0.001w      9 calls
| JK: AO2USO                :      0.000u      0.000s      0.000w      9 calls
HF: Form F                  :      0.000u      0.000s      0.000w      9 calls
HF: DIIS                    :      0.000u      0.000s      0.007w      9 calls
| DIISManager::add_entry    :      0.000u      0.000s      0.006w      8 calls
| DIISManager::extrapolate  :      0.000u      0.000s      0.001w      7 calls
| | bMatrix setup           :      0.000u      0.000s      0.000w      7 calls
| | bMatrix pseudoinverse   :      0.000u      0.000s      0.000w      7 calls
| | New vector              :      0.000u      0.000s      0.000w      7 calls
HF: Form C                  :      0.000u      0.000s      0.000w      9 calls
HF: Form D                  :      0.000u      0.000s      0.000w      9 calls

***********************************************************

Host: LAPTOP-UD8U1GLI

Timers On : Tue Sep 10 09:45:19 2019
Timers Off: Tue Sep 10 09:45:20 2019

Wall Time:        1.21 seconds

DFH: initialize()           :      0.033u      0.000s      0.045w      1 calls
DFH: sparsity prep          :      0.033u      0.000s      0.010w      1 calls
DFH: AO Construction        :      0.000u      0.000s      0.003w      1 calls
DFH: AO-Met. Contraction    :      0.000u      0.000s      0.001w      1 calls
HF: Form H                  :      0.000u      0.000s      0.021w      1 calls
HF: Form S/X                :      0.000u      0.000s      0.000w      1 calls
HF: Guess                   :      0.100u      0.000s      0.070w      1 calls
SAD Guess                   :      0.100u      0.000s      0.068w      1 calls
HF: Form G                  :      0.000u      0.000s      0.002w      9 calls
JK: D                       :      0.000u      0.000s      0.000w      9 calls
JK: USO2AO                  :      0.000u      0.000s      0.000w      9 calls
JK: JK                      :      0.000u      0.000s      0.001w      9 calls
DFH: compute_JK()           :      0.000u      0.000s      0.001w      9 calls
DFH: Grabbing AOs           :      0.000u      0.000s      0.000w      9 calls
DFH: compute_J              :      0.000u      0.000s      0.000w      9 calls
DFH: compute_K              :      0.000u      0.000s      0.001w      9 calls
JK: AO2USO                  :      0.000u      0.000s      0.000w      9 calls
HF: Form F                  :      0.000u      0.000s      0.000w      9 calls
HF: DIIS                    :      0.000u      0.000s      0.007w      9 calls
DIISManager::add_entry      :      0.000u      0.000s      0.006w      8 calls
DIISManager::extrapolate    :      0.000u      0.000s      0.001w      7 calls
bMatrix setup               :      0.000u      0.000s      0.000w      7 calls
bMatrix pseudoinverse       :      0.000u      0.000s      0.000w      7 calls
New vector                  :      0.000u      0.000s      0.000w      7 calls
HF: Form C                  :      0.000u      0.000s      0.000w      9 calls
HF: Form D                  :      0.000u      0.000s      0.000w      9 calls

-----------------------------------------------------------
DFH: initialize()           :      0.033u      0.000s      0.045w      1 calls
| DFH: sparsity prep        :      0.033u      0.000s      0.010w      1 calls
| DFH: AO Construction      :      0.000u      0.000s      0.003w      1 calls
| DFH: AO-Met. Contraction  :      0.000u      0.000s      0.001w      1 calls
HF: Form H                  :      0.000u      0.000s      0.021w      1 calls
HF: Form S/X                :      0.000u      0.000s      0.000w      1 calls
HF: Guess                   :      0.100u      0.000s      0.070w      1 calls
| SAD Guess                 :      0.100u      0.000s      0.068w      1 calls
HF: Form G                  :      0.000u      0.000s      0.002w      9 calls
| JK: D                     :      0.000u      0.000s      0.000w      9 calls
| JK: USO2AO                :      0.000u      0.000s      0.000w      9 calls
| JK: JK                    :      0.000u      0.000s      0.001w      9 calls
| | DFH: compute_JK()       :      0.000u      0.000s      0.001w      9 calls
| | | DFH: Grabbing AOs     :      0.000u      0.000s      0.000w      9 calls
| | | DFH: compute_J        :      0.000u      0.000s      0.000w      9 calls
| | | DFH: compute_K        :      0.000u      0.000s      0.001w      9 calls
| JK: AO2USO                :      0.000u      0.000s      0.000w      9 calls
HF: Form F                  :      0.000u      0.000s      0.000w      9 calls
HF: DIIS                    :      0.000u      0.000s      0.007w      9 calls
| DIISManager::add_entry    :      0.000u      0.000s      0.006w      8 calls
| DIISManager::extrapolate  :      0.000u      0.000s      0.001w      7 calls
| | bMatrix setup           :      0.000u      0.000s      0.000w      7 calls
| | bMatrix pseudoinverse   :      0.000u      0.000s      0.000w      7 calls
| | New vector              :      0.000u      0.000s      0.000w      7 calls
HF: Form C                  :      0.000u      0.000s      0.000w      9 calls
HF: Form D                  :      0.000u      0.000s      0.000w      9 calls

***********************************************************

Host: LAPTOP-UD8U1GLI

Timers On : Tue Sep 10 09:45:48 2019
Timers Off: Tue Sep 10 09:45:49 2019

Wall Time:        1.21 seconds

DFH: initialize()           :      0.050u      0.000s      0.044w      1 calls
DFH: sparsity prep          :      0.033u      0.000s      0.010w      1 calls
DFH: AO Construction        :      0.017u      0.000s      0.003w      1 calls
DFH: AO-Met. Contraction    :      0.000u      0.000s      0.001w      1 calls
HF: Form H                  :      0.000u      0.033s      0.020w      1 calls
HF: Form S/X                :      0.000u      0.000s      0.000w      1 calls
HF: Guess                   :      0.083u      0.000s      0.070w      1 calls
SAD Guess                   :      0.083u      0.000s      0.068w      1 calls
HF: Form G                  :      0.000u      0.000s      0.002w      9 calls
JK: D                       :      0.000u      0.000s      0.000w      9 calls
JK: USO2AO                  :      0.000u      0.000s      0.000w      9 calls
JK: JK                      :      0.000u      0.000s      0.001w      9 calls
DFH: compute_JK()           :      0.000u      0.000s      0.001w      9 calls
DFH: Grabbing AOs           :      0.000u      0.000s      0.000w      9 calls
DFH: compute_J              :      0.000u      0.000s      0.000w      9 calls
DFH: compute_K              :      0.000u      0.000s      0.001w      9 calls
JK: AO2USO                  :      0.000u      0.000s      0.000w      9 calls
HF: Form F                  :      0.000u      0.000s      0.000w      9 calls
HF: DIIS                    :      0.000u      0.000s      0.006w      9 calls
DIISManager::add_entry      :      0.000u      0.000s      0.004w      8 calls
DIISManager::extrapolate    :      0.000u      0.000s      0.001w      7 calls
bMatrix setup               :      0.000u      0.000s      0.000w      7 calls
bMatrix pseudoinverse       :      0.000u      0.000s      0.000w      7 calls
New vector                  :      0.000u      0.000s      0.000w      7 calls
HF: Form C                  :      0.000u      0.000s      0.001w      9 calls
HF: Form D                  :      0.000u      0.000s      0.000w      9 calls

-----------------------------------------------------------
DFH: initialize()           :      0.050u      0.000s      0.044w      1 calls
| DFH: sparsity prep        :      0.033u      0.000s      0.010w      1 calls
| DFH: AO Construction      :      0.017u      0.000s      0.003w      1 calls
| DFH: AO-Met. Contraction  :      0.000u      0.000s      0.001w      1 calls
HF: Form H                  :      0.000u      0.033s      0.020w      1 calls
HF: Form S/X                :      0.000u      0.000s      0.000w      1 calls
HF: Guess                   :      0.083u      0.000s      0.070w      1 calls
| SAD Guess                 :      0.083u      0.000s      0.068w      1 calls
HF: Form G                  :      0.000u      0.000s      0.002w      9 calls
| JK: D                     :      0.000u      0.000s      0.000w      9 calls
| JK: USO2AO                :      0.000u      0.000s      0.000w      9 calls
| JK: JK                    :      0.000u      0.000s      0.001w      9 calls
| | DFH: compute_JK()       :      0.000u      0.000s      0.001w      9 calls
| | | DFH: Grabbing AOs     :      0.000u      0.000s      0.000w      9 calls
| | | DFH: compute_J        :      0.000u      0.000s      0.000w      9 calls
| | | DFH: compute_K        :      0.000u      0.000s      0.001w      9 calls
| JK: AO2USO                :      0.000u      0.000s      0.000w      9 calls
HF: Form F                  :      0.000u      0.000s      0.000w      9 calls
HF: DIIS                    :      0.000u      0.000s      0.006w      9 calls
| DIISManager::add_entry    :      0.000u      0.000s      0.004w      8 calls
| DIISManager::extrapolate  :      0.000u      0.000s      0.001w      7 calls
| | bMatrix setup           :      0.000u      0.000s      0.000w      7 calls
| | bMatrix pseudoinverse   :      0.000u      0.000s      0.000w      7 calls
| | New vector              :      0.000u      0.000s      0.000w      7 calls
HF: Form C                  :      0.000u      0.000s      0.001w      9 calls
HF: Form D                  :      0.000u      0.000s      0.000w      9 calls

***********************************************************

Host: LAPTOP-UD8U1GLI

Timers On : Tue Sep 10 09:52:13 2019
Timers Off: Tue Sep 10 09:52:15 2019

Wall Time:        1.96 seconds

V: Grid                     :      0.067u      0.000s      0.037w      1 calls
DFH: initialize()           :      0.050u      0.000s      0.041w      1 calls
DFH: sparsity prep          :      0.017u      0.000s      0.009w      1 calls
DFH: AO Construction        :      0.000u      0.000s      0.003w      1 calls
DFH: AO-Met. Contraction    :      0.000u      0.000s      0.000w      1 calls
HF: Form H                  :      0.000u      0.000s      0.020w      1 calls
HF: Form S/X                :      0.000u      0.000s      0.000w      1 calls
HF: Guess                   :      0.083u      0.000s      0.072w      1 calls
SAD Guess                   :      0.083u      0.000s      0.070w      1 calls
HF: Form G                  :      0.883u      0.150s      0.620w      7 calls
RV: Form V                  :      0.883u      0.150s      0.616w      7 calls
Properties                  :      0.267u      0.000s      0.214w   4018 calls
Functional                  :      0.500u      0.083s      0.275w   4018 calls
V_xc                        :      0.100u      0.033s      0.089w   4018 calls
JK: D                       :      0.000u      0.000s      0.000w      7 calls
JK: USO2AO                  :      0.000u      0.000s      0.000w      7 calls
JK: JK                      :      0.000u      0.000s      0.001w      7 calls
DFH: compute_JK()           :      0.000u      0.000s      0.001w      7 calls
DFH: Grabbing AOs           :      0.000u      0.000s      0.000w      7 calls
DFH: compute_J              :      0.000u      0.000s      0.000w      7 calls
DFH: compute_K              :      0.000u      0.000s      0.001w      7 calls
JK: AO2USO                  :      0.000u      0.000s      0.000w      7 calls
HF: Form F                  :      0.000u      0.000s      0.000w      7 calls
HF: DIIS                    :      0.000u      0.000s      0.006w      7 calls
DIISManager::add_entry      :      0.000u      0.000s      0.005w      6 calls
DIISManager::extrapolate    :      0.000u      0.000s      0.001w      5 calls
bMatrix setup               :      0.000u      0.000s      0.000w      5 calls
bMatrix pseudoinverse       :      0.000u      0.000s      0.000w      5 calls
New vector                  :      0.000u      0.000s      0.000w      5 calls
HF: Form C                  :      0.000u      0.000s      0.000w      7 calls
HF: Form D                  :      0.000u      0.000s      0.000w      7 calls

-----------------------------------------------------------
V: Grid                     :      0.067u      0.000s      0.037w      1 calls
DFH: initialize()           :      0.050u      0.000s      0.041w      1 calls
| DFH: sparsity prep        :      0.017u      0.000s      0.009w      1 calls
| DFH: AO Construction      :      0.000u      0.000s      0.003w      1 calls
| DFH: AO-Met. Contraction  :      0.000u      0.000s      0.000w      1 calls
HF: Form H                  :      0.000u      0.000s      0.020w      1 calls
HF: Form S/X                :      0.000u      0.000s      0.000w      1 calls
HF: Guess                   :      0.083u      0.000s      0.072w      1 calls
| SAD Guess                 :      0.083u      0.000s      0.070w      1 calls
HF: Form G                  :      0.883u      0.150s      0.620w      7 calls
| RV: Form V                :      0.883u      0.150s      0.616w      7 calls
| | Properties              :      0.267u      0.000s      0.214w   4018 calls
| | Functional              :      0.500u      0.083s      0.275w   4018 calls
| | V_xc                    :      0.100u      0.033s      0.089w   4018 calls
| JK: D                     :      0.000u      0.000s      0.000w      7 calls
| JK: USO2AO                :      0.000u      0.000s      0.000w      7 calls
| JK: JK                    :      0.000u      0.000s      0.001w      7 calls
| | DFH: compute_JK()       :      0.000u      0.000s      0.001w      7 calls
| | | DFH: Grabbing AOs     :      0.000u      0.000s      0.000w      7 calls
| | | DFH: compute_J        :      0.000u      0.000s      0.000w      7 calls
| | | DFH: compute_K        :      0.000u      0.000s      0.001w      7 calls
| JK: AO2USO                :      0.000u      0.000s      0.000w      7 calls
HF: Form F                  :      0.000u      0.000s      0.000w      7 calls
HF: DIIS                    :      0.000u      0.000s      0.006w      7 calls
| DIISManager::add_entry    :      0.000u      0.000s      0.005w      6 calls
| DIISManager::extrapolate  :      0.000u      0.000s      0.001w      5 calls
| | bMatrix setup           :      0.000u      0.000s      0.000w      5 calls
| | bMatrix pseudoinverse   :      0.000u      0.000s      0.000w      5 calls
| | New vector              :      0.000u      0.000s      0.000w      5 calls
HF: Form C                  :      0.000u      0.000s      0.000w      7 calls
HF: Form D                  :      0.000u      0.000s      0.000w      7 calls

***********************************************************

Host: LAPTOP-UD8U1GLI

Timers On : Tue Sep 10 09:58:41 2019
Timers Off: Tue Sep 10 09:58:44 2019

Wall Time:        3.37 seconds

V: Grid                     :      0.050u      0.033s      0.038w      1 calls
DFH: initialize()           :      0.217u      0.017s      0.175w      1 calls
DFH: sparsity prep          :      0.050u      0.000s      0.025w      1 calls
DFH: AO Construction        :      0.083u      0.000s      0.058w      1 calls
DFH: AO-Met. Contraction    :      0.050u      0.017s      0.042w      1 calls
HF: Form H                  :      0.000u      0.000s      0.020w      1 calls
HF: Form S/X                :      0.000u      0.000s      0.001w      1 calls
HF: Guess                   :      0.133u      0.033s      0.099w      1 calls
SAD Guess                   :      0.133u      0.033s      0.096w      1 calls
HF: Form G                  :      3.017u      0.067s      1.862w      7 calls
RV: Form V                  :      2.917u      0.067s      1.815w      7 calls
Properties                  :      1.683u      0.000s      0.869w   3990 calls
Functional                  :      0.417u      0.017s      0.270w   3990 calls
V_xc                        :      0.800u      0.000s      0.638w   3990 calls
JK: D                       :      0.000u      0.000s      0.000w      7 calls
JK: USO2AO                  :      0.000u      0.000s      0.001w      7 calls
JK: JK                      :      0.100u      0.000s      0.040w      7 calls
DFH: compute_JK()           :      0.100u      0.000s      0.040w      7 calls
DFH: Grabbing AOs           :      0.000u      0.000s      0.000w      7 calls
DFH: compute_J              :      0.017u      0.000s      0.012w      7 calls
DFH: compute_K              :      0.083u      0.000s      0.028w      7 calls
JK: AO2USO                  :      0.000u      0.000s      0.001w      7 calls
HF: Form F                  :      0.000u      0.000s      0.000w      7 calls
HF: DIIS                    :      0.000u      0.000s      0.008w      7 calls
DIISManager::add_entry      :      0.000u      0.000s      0.006w      6 calls
DIISManager::extrapolate    :      0.000u      0.000s      0.001w      5 calls
bMatrix setup               :      0.000u      0.000s      0.000w      5 calls
bMatrix pseudoinverse       :      0.000u      0.000s      0.000w      5 calls
New vector                  :      0.000u      0.000s      0.000w      5 calls
HF: Form C                  :      0.000u      0.000s      0.003w      7 calls
HF: Form D                  :      0.000u      0.000s      0.000w      7 calls

-----------------------------------------------------------
V: Grid                     :      0.050u      0.033s      0.038w      1 calls
DFH: initialize()           :      0.217u      0.017s      0.175w      1 calls
| DFH: sparsity prep        :      0.050u      0.000s      0.025w      1 calls
| DFH: AO Construction      :      0.083u      0.000s      0.058w      1 calls
| DFH: AO-Met. Contraction  :      0.050u      0.017s      0.042w      1 calls
HF: Form H                  :      0.000u      0.000s      0.020w      1 calls
HF: Form S/X                :      0.000u      0.000s      0.001w      1 calls
HF: Guess                   :      0.133u      0.033s      0.099w      1 calls
| SAD Guess                 :      0.133u      0.033s      0.096w      1 calls
HF: Form G                  :      3.017u      0.067s      1.862w      7 calls
| RV: Form V                :      2.917u      0.067s      1.815w      7 calls
| | Properties              :      1.683u      0.000s      0.869w   3990 calls
| | Functional              :      0.417u      0.017s      0.270w   3990 calls
| | V_xc                    :      0.800u      0.000s      0.638w   3990 calls
| JK: D                     :      0.000u      0.000s      0.000w      7 calls
| JK: USO2AO                :      0.000u      0.000s      0.001w      7 calls
| JK: JK                    :      0.100u      0.000s      0.040w      7 calls
| | DFH: compute_JK()       :      0.100u      0.000s      0.040w      7 calls
| | | DFH: Grabbing AOs     :      0.000u      0.000s      0.000w      7 calls
| | | DFH: compute_J        :      0.017u      0.000s      0.012w      7 calls
| | | DFH: compute_K        :      0.083u      0.000s      0.028w      7 calls
| JK: AO2USO                :      0.000u      0.000s      0.001w      7 calls
HF: Form F                  :      0.000u      0.000s      0.000w      7 calls
HF: DIIS                    :      0.000u      0.000s      0.008w      7 calls
| DIISManager::add_entry    :      0.000u      0.000s      0.006w      6 calls
| DIISManager::extrapolate  :      0.000u      0.000s      0.001w      5 calls
| | bMatrix setup           :      0.000u      0.000s      0.000w      5 calls
| | bMatrix pseudoinverse   :      0.000u      0.000s      0.000w      5 calls
| | New vector              :      0.000u      0.000s      0.000w      5 calls
HF: Form C                  :      0.000u      0.000s      0.003w      7 calls
HF: Form D                  :      0.000u      0.000s      0.000w      7 calls

***********************************************************

Host: LAPTOP-UD8U1GLI

Timers On : Tue Sep 10 10:06:02 2019
Timers Off: Tue Sep 10 10:06:06 2019

Wall Time:        3.35 seconds

V: Grid                     :      0.033u      0.017s      0.038w      1 calls
DFH: initialize()           :      0.217u      0.067s      0.173w      1 calls
DFH: sparsity prep          :      0.050u      0.000s      0.025w      1 calls
DFH: AO Construction        :      0.083u      0.033s      0.057w      1 calls
DFH: AO-Met. Contraction    :      0.050u      0.033s      0.042w      1 calls
HF: Form H                  :      0.000u      0.000s      0.020w      1 calls
HF: Form S/X                :      0.000u      0.000s      0.001w      1 calls
HF: Guess                   :      0.133u      0.017s      0.100w      1 calls
SAD Guess                   :      0.133u      0.017s      0.097w      1 calls
HF: Form G                  :      3.050u      0.050s      1.860w      7 calls
RV: Form V                  :      3.000u      0.050s      1.811w      7 calls
Properties                  :      1.250u      0.000s      0.865w   3990 calls
Functional                  :      0.300u      0.000s      0.269w   3990 calls
V_xc                        :      1.417u      0.017s      0.639w   3990 calls
JK: D                       :      0.000u      0.000s      0.000w      7 calls
JK: USO2AO                  :      0.000u      0.000s      0.001w      7 calls
JK: JK                      :      0.050u      0.000s      0.043w      7 calls
DFH: compute_JK()           :      0.050u      0.000s      0.043w      7 calls
DFH: Grabbing AOs           :      0.000u      0.000s      0.000w      7 calls
DFH: compute_J              :      0.017u      0.000s      0.013w      7 calls
DFH: compute_K              :      0.033u      0.000s      0.029w      7 calls
JK: AO2USO                  :      0.000u      0.000s      0.001w      7 calls
HF: Form F                  :      0.000u      0.000s      0.000w      7 calls
HF: DIIS                    :      0.000u      0.000s      0.008w      7 calls
DIISManager::add_entry      :      0.000u      0.000s      0.006w      6 calls
DIISManager::extrapolate    :      0.000u      0.000s      0.001w      5 calls
bMatrix setup               :      0.000u      0.000s      0.000w      5 calls
bMatrix pseudoinverse       :      0.000u      0.000s      0.000w      5 calls
New vector                  :      0.000u      0.000s      0.000w      5 calls
HF: Form C                  :      0.000u      0.000s      0.003w      7 calls
HF: Form D                  :      0.000u      0.000s      0.000w      7 calls

-----------------------------------------------------------
V: Grid                     :      0.033u      0.017s      0.038w      1 calls
DFH: initialize()           :      0.217u      0.067s      0.173w      1 calls
| DFH: sparsity prep        :      0.050u      0.000s      0.025w      1 calls
| DFH: AO Construction      :      0.083u      0.033s      0.057w      1 calls
| DFH: AO-Met. Contraction  :      0.050u      0.033s      0.042w      1 calls
HF: Form H                  :      0.000u      0.000s      0.020w      1 calls
HF: Form S/X                :      0.000u      0.000s      0.001w      1 calls
HF: Guess                   :      0.133u      0.017s      0.100w      1 calls
| SAD Guess                 :      0.133u      0.017s      0.097w      1 calls
HF: Form G                  :      3.050u      0.050s      1.860w      7 calls
| RV: Form V                :      3.000u      0.050s      1.811w      7 calls
| | Properties              :      1.250u      0.000s      0.865w   3990 calls
| | Functional              :      0.300u      0.000s      0.269w   3990 calls
| | V_xc                    :      1.417u      0.017s      0.639w   3990 calls
| JK: D                     :      0.000u      0.000s      0.000w      7 calls
| JK: USO2AO                :      0.000u      0.000s      0.001w      7 calls
| JK: JK                    :      0.050u      0.000s      0.043w      7 calls
| | DFH: compute_JK()       :      0.050u      0.000s      0.043w      7 calls
| | | DFH: Grabbing AOs     :      0.000u      0.000s      0.000w      7 calls
| | | DFH: compute_J        :      0.017u      0.000s      0.013w      7 calls
| | | DFH: compute_K        :      0.033u      0.000s      0.029w      7 calls
| JK: AO2USO                :      0.000u      0.000s      0.001w      7 calls
HF: Form F                  :      0.000u      0.000s      0.000w      7 calls
HF: DIIS                    :      0.000u      0.000s      0.008w      7 calls
| DIISManager::add_entry    :      0.000u      0.000s      0.006w      6 calls
| DIISManager::extrapolate  :      0.000u      0.000s      0.001w      5 calls
| | bMatrix setup           :      0.000u      0.000s      0.000w      5 calls
| | bMatrix pseudoinverse   :      0.000u      0.000s      0.000w      5 calls
| | New vector              :      0.000u      0.000s      0.000w      5 calls
HF: Form C                  :      0.000u      0.000s      0.003w      7 calls
HF: Form D                  :      0.000u      0.000s      0.000w      7 calls

***********************************************************

Host: LAPTOP-UD8U1GLI

Timers On : Tue Sep 10 10:07:02 2019
Timers Off: Tue Sep 10 10:07:03 2019

Wall Time:        1.30 seconds

DFH: initialize()           :      0.117u      0.000s      0.056w      1 calls
DFH: sparsity prep          :      0.000u      0.000s      0.011w      1 calls
DFH: AO Construction        :      0.000u      0.000s      0.009w      1 calls
DFH: AO-Met. Contraction    :      0.033u      0.000s      0.003w      1 calls
HF: Form H                  :      0.000u      0.000s      0.021w      1 calls
HF: Form S/X                :      0.000u      0.000s      0.000w      1 calls
HF: Guess                   :      0.067u      0.000s      0.069w      1 calls
SAD Guess                   :      0.067u      0.000s      0.067w      1 calls
HF: Form G                  :      0.000u      0.000s      0.003w      8 calls
JK: D                       :      0.000u      0.000s      0.000w      8 calls
JK: USO2AO                  :      0.000u      0.000s      0.000w      8 calls
JK: JK                      :      0.000u      0.000s      0.002w      8 calls
DFH: compute_JK()           :      0.000u      0.000s      0.002w      8 calls
DFH: Grabbing AOs           :      0.000u      0.000s      0.000w      8 calls
DFH: compute_J              :      0.000u      0.000s      0.001w      8 calls
DFH: compute_K              :      0.000u      0.000s      0.002w      8 calls
JK: AO2USO                  :      0.000u      0.000s      0.000w      8 calls
HF: Form F                  :      0.000u      0.000s      0.000w      8 calls
HF: DIIS                    :      0.000u      0.000s      0.007w      8 calls
DIISManager::add_entry      :      0.000u      0.000s      0.006w      7 calls
DIISManager::extrapolate    :      0.000u      0.000s      0.001w      6 calls
bMatrix setup               :      0.000u      0.000s      0.000w      6 calls
bMatrix pseudoinverse       :      0.000u      0.000s      0.000w      6 calls
New vector                  :      0.000u      0.000s      0.000w      6 calls
HF: Form C                  :      0.000u      0.000s      0.001w      8 calls
HF: Form D                  :      0.000u      0.000s      0.000w      8 calls

-----------------------------------------------------------
DFH: initialize()           :      0.117u      0.000s      0.056w      1 calls
| DFH: sparsity prep        :      0.000u      0.000s      0.011w      1 calls
| DFH: AO Construction      :      0.000u      0.000s      0.009w      1 calls
| DFH: AO-Met. Contraction  :      0.033u      0.000s      0.003w      1 calls
HF: Form H                  :      0.000u      0.000s      0.021w      1 calls
HF: Form S/X                :      0.000u      0.000s      0.000w      1 calls
HF: Guess                   :      0.067u      0.000s      0.069w      1 calls
| SAD Guess                 :      0.067u      0.000s      0.067w      1 calls
HF: Form G                  :      0.000u      0.000s      0.003w      8 calls
| JK: D                     :      0.000u      0.000s      0.000w      8 calls
| JK: USO2AO                :      0.000u      0.000s      0.000w      8 calls
| JK: JK                    :      0.000u      0.000s      0.002w      8 calls
| | DFH: compute_JK()       :      0.000u      0.000s      0.002w      8 calls
| | | DFH: Grabbing AOs     :      0.000u      0.000s      0.000w      8 calls
| | | DFH: compute_J        :      0.000u      0.000s      0.001w      8 calls
| | | DFH: compute_K        :      0.000u      0.000s      0.002w      8 calls
| JK: AO2USO                :      0.000u      0.000s      0.000w      8 calls
HF: Form F                  :      0.000u      0.000s      0.000w      8 calls
HF: DIIS                    :      0.000u      0.000s      0.007w      8 calls
| DIISManager::add_entry    :      0.000u      0.000s      0.006w      7 calls
| DIISManager::extrapolate  :      0.000u      0.000s      0.001w      6 calls
| | bMatrix setup           :      0.000u      0.000s      0.000w      6 calls
| | bMatrix pseudoinverse   :      0.000u      0.000s      0.000w      6 calls
| | New vector              :      0.000u      0.000s      0.000w      6 calls
HF: Form C                  :      0.000u      0.000s      0.001w      8 calls
HF: Form D                  :      0.000u      0.000s      0.000w      8 calls

***********************************************************

Host: LAPTOP-UD8U1GLI

Timers On : Tue Sep 10 10:08:37 2019
Timers Off: Tue Sep 10 10:08:53 2019

Wall Time:       16.39 seconds

Total PK formation time     :      2.517u      0.517s      1.847w      1 calls
HF: Form H                  :      0.000u      0.000s      0.021w      1 calls
HF: Form S/X                :      0.000u      0.000s      0.001w      1 calls
HF: Guess                   :      0.167u      0.000s      0.109w      1 calls
SAD Guess                   :      0.167u      0.000s      0.106w      1 calls
HF: Form G                  :      0.350u      0.000s      0.233w     11 calls
JK: D                       :      0.000u      0.000s      0.000w     11 calls
JK: USO2AO                  :      0.000u      0.000s      0.002w     11 calls
JK: JK                      :      0.350u      0.000s      0.228w     11 calls
PK computes JK              :      0.350u      0.000s      0.228w     11 calls
JK: AO2USO                  :      0.000u      0.000s      0.002w     11 calls
HF: Form F                  :      0.000u      0.000s      0.000w     11 calls
HF: DIIS                    :      0.000u      0.000s      0.010w     11 calls
DIISManager::add_entry      :      0.000u      0.000s      0.007w     10 calls
DIISManager::extrapolate    :      0.000u      0.000s      0.003w      9 calls
bMatrix setup               :      0.000u      0.000s      0.001w      9 calls
bMatrix pseudoinverse       :      0.000u      0.000s      0.000w      9 calls
New vector                  :      0.000u      0.000s      0.001w      9 calls
HF: Form C                  :      0.000u      0.000s      0.004w     11 calls
HF: Form D                  :      0.000u      0.000s      0.000w     11 calls

-----------------------------------------------------------
Total PK formation time     :      2.517u      0.517s      1.847w      1 calls
HF: Form H                  :      0.000u      0.000s      0.021w      1 calls
HF: Form S/X                :      0.000u      0.000s      0.001w      1 calls
HF: Guess                   :      0.167u      0.000s      0.109w      1 calls
| SAD Guess                 :      0.167u      0.000s      0.106w      1 calls
HF: Form G                  :      0.350u      0.000s      0.233w     11 calls
| JK: D                     :      0.000u      0.000s      0.000w     11 calls
| JK: USO2AO                :      0.000u      0.000s      0.002w     11 calls
| JK: JK                    :      0.350u      0.000s      0.228w     11 calls
| | PK computes JK          :      0.350u      0.000s      0.228w     11 calls
| JK: AO2USO                :      0.000u      0.000s      0.002w     11 calls
HF: Form F                  :      0.000u      0.000s      0.000w     11 calls
HF: DIIS                    :      0.000u      0.000s      0.010w     11 calls
| DIISManager::add_entry    :      0.000u      0.000s      0.007w     10 calls
| DIISManager::extrapolate  :      0.000u      0.000s      0.003w      9 calls
| | bMatrix setup           :      0.000u      0.000s      0.001w      9 calls
| | bMatrix pseudoinverse   :      0.000u      0.000s      0.000w      9 calls
| | New vector              :      0.000u      0.000s      0.001w      9 calls
HF: Form C                  :      0.000u      0.000s      0.004w     11 calls
HF: Form D                  :      0.000u      0.000s      0.000w     11 calls

***********************************************************

Host: LAPTOP-UD8U1GLI

Timers On : Thu Sep 12 08:43:27 2019
Timers Off: Thu Sep 12 08:43:38 2019

Wall Time:       11.89 seconds

V: Grid                     :      0.033u      0.017s      0.029w      1 calls
DFH: initialize()           :      0.033u      0.050s      0.081w      1 calls
DFH: sparsity prep          :      0.000u      0.000s      0.013w      1 calls
DFH: AO Construction        :      0.000u      0.000s      0.001w      1 calls
DFH: AO-Met. Contraction    :      0.000u      0.000s      0.000w      1 calls
HF: Form H                  :      0.000u      0.000s      0.024w      1 calls
HF: Form S/X                :      0.000u      0.000s      0.001w      1 calls
HF: Guess                   :      0.000u      0.000s      0.001w      1 calls
HF: Form G                  :      0.333u      0.050s      0.259w      5 calls
RV: Form V                  :      0.300u      0.050s      0.245w      5 calls
Properties                  :      0.050u      0.033s      0.051w   1060 calls
Functional                  :      0.150u      0.000s      0.140w   1060 calls
V_xc                        :      0.067u      0.017s      0.031w   1060 calls
JK: D                       :      0.000u      0.000s      0.000w      5 calls
JK: USO2AO                  :      0.033u      0.000s      0.001w      5 calls
JK: JK                      :      0.000u      0.000s      0.002w      5 calls
DFH: compute_JK()           :      0.000u      0.000s      0.001w      5 calls
DFH: Grabbing AOs           :      0.000u      0.000s      0.000w      5 calls
DFH: compute_J              :      0.000u      0.000s      0.000w      5 calls
DFH: compute_K              :      0.000u      0.000s      0.001w      5 calls
JK: AO2USO                  :      0.000u      0.000s      0.000w      5 calls
HF: Form F                  :      0.000u      0.000s      0.000w      5 calls
HF: DIIS                    :      0.000u      0.033s      0.011w      5 calls
DIISManager::add_entry      :      0.000u      0.033s      0.008w      5 calls
DIISManager::extrapolate    :      0.000u      0.000s      0.002w      4 calls
bMatrix setup               :      0.000u      0.000s      0.000w      4 calls
bMatrix pseudoinverse       :      0.000u      0.000s      0.001w      4 calls
New vector                  :      0.000u      0.000s      0.000w      4 calls
HF: Form C                  :      0.000u      0.000s      0.000w      5 calls
HF: Form D                  :      0.000u      0.000s      0.000w      5 calls

-----------------------------------------------------------
V: Grid                     :      0.033u      0.017s      0.029w      1 calls
DFH: initialize()           :      0.033u      0.050s      0.081w      1 calls
| DFH: sparsity prep        :      0.000u      0.000s      0.013w      1 calls
| DFH: AO Construction      :      0.000u      0.000s      0.001w      1 calls
| DFH: AO-Met. Contraction  :      0.000u      0.000s      0.000w      1 calls
HF: Form H                  :      0.000u      0.000s      0.024w      1 calls
HF: Form S/X                :      0.000u      0.000s      0.001w      1 calls
HF: Guess                   :      0.000u      0.000s      0.001w      1 calls
HF: Form G                  :      0.333u      0.050s      0.259w      5 calls
| RV: Form V                :      0.300u      0.050s      0.245w      5 calls
| | Properties              :      0.050u      0.033s      0.051w   1060 calls
| | Functional              :      0.150u      0.000s      0.140w   1060 calls
| | V_xc                    :      0.067u      0.017s      0.031w   1060 calls
| JK: D                     :      0.000u      0.000s      0.000w      5 calls
| JK: USO2AO                :      0.033u      0.000s      0.001w      5 calls
| JK: JK                    :      0.000u      0.000s      0.002w      5 calls
| | DFH: compute_JK()       :      0.000u      0.000s      0.001w      5 calls
| | | DFH: Grabbing AOs     :      0.000u      0.000s      0.000w      5 calls
| | | DFH: compute_J        :      0.000u      0.000s      0.000w      5 calls
| | | DFH: compute_K        :      0.000u      0.000s      0.001w      5 calls
| JK: AO2USO                :      0.000u      0.000s      0.000w      5 calls
HF: Form F                  :      0.000u      0.000s      0.000w      5 calls
HF: DIIS                    :      0.000u      0.033s      0.011w      5 calls
| DIISManager::add_entry    :      0.000u      0.033s      0.008w      5 calls
| DIISManager::extrapolate  :      0.000u      0.000s      0.002w      4 calls
| | bMatrix setup           :      0.000u      0.000s      0.000w      4 calls
| | bMatrix pseudoinverse   :      0.000u      0.000s      0.001w      4 calls
| | New vector              :      0.000u      0.000s      0.000w      4 calls
HF: Form C                  :      0.000u      0.000s      0.000w      5 calls
HF: Form D                  :      0.000u      0.000s      0.000w      5 calls

***********************************************************

Host: LAPTOP-UD8U1GLI

Timers On : Thu Sep 12 09:06:00 2019
Timers Off: Thu Sep 12 09:06:03 2019

Wall Time:        2.52 seconds

V: Grid                     :      0.033u      0.000s      0.019w      1 calls
DFH: initialize()           :      0.050u      0.000s      0.054w      1 calls
DFH: sparsity prep          :      0.033u      0.000s      0.011w      1 calls
DFH: AO Construction        :      0.000u      0.000s      0.000w      1 calls
DFH: AO-Met. Contraction    :      0.000u      0.000s      0.000w      1 calls
HF: Form H                  :      0.000u      0.033s      0.013w      1 calls
HF: Form S/X                :      0.000u      0.000s      0.000w      1 calls
HF: Guess                   :      0.000u      0.000s      0.000w      1 calls
HF: Form G                  :      0.333u      0.033s      0.242w      5 calls
RV: Form V                  :      0.333u      0.033s      0.236w      5 calls
Properties                  :      0.017u      0.033s      0.049w   1060 calls
Functional                  :      0.300u      0.000s      0.135w   1060 calls
V_xc                        :      0.017u      0.000s      0.030w   1060 calls
JK: D                       :      0.000u      0.000s      0.000w      5 calls
JK: USO2AO                  :      0.000u      0.000s      0.000w      5 calls
JK: JK                      :      0.000u      0.000s      0.001w      5 calls
DFH: compute_JK()           :      0.000u      0.000s      0.000w      5 calls
DFH: Grabbing AOs           :      0.000u      0.000s      0.000w      5 calls
DFH: compute_J              :      0.000u      0.000s      0.000w      5 calls
DFH: compute_K              :      0.000u      0.000s      0.000w      5 calls
JK: AO2USO                  :      0.000u      0.000s      0.000w      5 calls
HF: Form F                  :      0.000u      0.000s      0.000w      5 calls
HF: DIIS                    :      0.000u      0.017s      0.036w      5 calls
DIISManager::add_entry      :      0.000u      0.017s      0.035w      5 calls
DIISManager::extrapolate    :      0.000u      0.000s      0.001w      4 calls
bMatrix setup               :      0.000u      0.000s      0.000w      4 calls
bMatrix pseudoinverse       :      0.000u      0.000s      0.000w      4 calls
New vector                  :      0.000u      0.000s      0.000w      4 calls
HF: Form C                  :      0.000u      0.000s      0.000w      5 calls
HF: Form D                  :      0.000u      0.000s      0.000w      5 calls

-----------------------------------------------------------
V: Grid                     :      0.033u      0.000s      0.019w      1 calls
DFH: initialize()           :      0.050u      0.000s      0.054w      1 calls
| DFH: sparsity prep        :      0.033u      0.000s      0.011w      1 calls
| DFH: AO Construction      :      0.000u      0.000s      0.000w      1 calls
| DFH: AO-Met. Contraction  :      0.000u      0.000s      0.000w      1 calls
HF: Form H                  :      0.000u      0.033s      0.013w      1 calls
HF: Form S/X                :      0.000u      0.000s      0.000w      1 calls
HF: Guess                   :      0.000u      0.000s      0.000w      1 calls
HF: Form G                  :      0.333u      0.033s      0.242w      5 calls
| RV: Form V                :      0.333u      0.033s      0.236w      5 calls
| | Properties              :      0.017u      0.033s      0.049w   1060 calls
| | Functional              :      0.300u      0.000s      0.135w   1060 calls
| | V_xc                    :      0.017u      0.000s      0.030w   1060 calls
| JK: D                     :      0.000u      0.000s      0.000w      5 calls
| JK: USO2AO                :      0.000u      0.000s      0.000w      5 calls
| JK: JK                    :      0.000u      0.000s      0.001w      5 calls
| | DFH: compute_JK()       :      0.000u      0.000s      0.000w      5 calls
| | | DFH: Grabbing AOs     :      0.000u      0.000s      0.000w      5 calls
| | | DFH: compute_J        :      0.000u      0.000s      0.000w      5 calls
| | | DFH: compute_K        :      0.000u      0.000s      0.000w      5 calls
| JK: AO2USO                :      0.000u      0.000s      0.000w      5 calls
HF: Form F                  :      0.000u      0.000s      0.000w      5 calls
HF: DIIS                    :      0.000u      0.017s      0.036w      5 calls
| DIISManager::add_entry    :      0.000u      0.017s      0.035w      5 calls
| DIISManager::extrapolate  :      0.000u      0.000s      0.001w      4 calls
| | bMatrix setup           :      0.000u      0.000s      0.000w      4 calls
| | bMatrix pseudoinverse   :      0.000u      0.000s      0.000w      4 calls
| | New vector              :      0.000u      0.000s      0.000w      4 calls
HF: Form C                  :      0.000u      0.000s      0.000w      5 calls
HF: Form D                  :      0.000u      0.000s      0.000w      5 calls

***********************************************************

Host: LAPTOP-UD8U1GLI

Timers On : Thu Sep 12 09:07:54 2019
Timers Off: Thu Sep 12 09:07:57 2019

Wall Time:        2.51 seconds

V: Grid                     :      0.017u      0.000s      0.019w      1 calls
[...]
V_xc                        :    146.767u      1.150s     89.615w 292153 calls
JK: D                       :      0.033u      0.000s      0.010w    370 calls
JK: USO2AO                  :      0.050u      0.000s      0.018w    370 calls
JK: JK                      :      8.233u      0.000s      5.028w    370 calls
DFH: compute_JK()           :      8.200u      0.000s      5.024w    370 calls
DFH: Grabbing AOs           :      0.000u      0.000s      0.001w    370 calls
DFH: compute_J              :      2.983u      0.000s      1.759w    370 calls
DFH: compute_K              :      5.150u      0.000s      3.248w    370 calls
JK: AO2USO                  :      0.050u      0.000s      0.018w    370 calls
HF: Form F                  :      0.050u      0.000s      0.012w    370 calls
HF: DIIS                    :      0.733u      0.500s      0.884w    370 calls
DIISManager::add_entry      :      0.000u      0.217s      0.296w    329 calls
DIISManager::extrapolate    :      0.117u      0.283s      0.267w    288 calls
bMatrix setup               :      0.017u      0.233s      0.129w    288 calls
bMatrix pseudoinverse       :      0.033u      0.000s      0.014w    288 calls
New vector                  :      0.067u      0.050s      0.120w    288 calls
HF: Form C                  :      2.033u      0.000s      1.150w    370 calls
HF: Form D                  :      0.033u      0.000s      0.008w    370 calls
Grad: V T Perturb           :      7.600u      0.233s      4.769w     41 calls
Grad: S                     :      0.217u      0.000s      0.098w     41 calls
Grad: JK                    :     84.183u      8.350s     55.899w     41 calls
JKGrad: Amn                 :     10.883u      3.600s      8.814w     41 calls
JKGrad: Awmn                :      0.000u      0.000s      0.000w     41 calls
JKGrad: AB                  :      1.850u      0.267s      1.228w     41 calls
JKGrad: UV                  :      0.000u      0.000s      0.024w     41 calls
JKGrad: ABx                 :      1.317u      0.050s      0.875w     41 calls
JKGrad: Amnx                :     68.233u      3.983s     43.343w     41 calls
Grad: XC                    :     77.217u      0.750s     46.933w     41 calls
V_xc gradient               :     34.967u      0.067s     20.991w  32399 calls

-----------------------------------------------------------
V: Grid                     :      3.167u      0.000s      1.902w     41 calls
DFH: initialize()           :     18.017u      4.250s     13.956w     41 calls
| DFH: sparsity prep        :      1.800u      0.000s      1.115w     41 calls
| DFH: AO Construction      :      8.183u      1.000s      5.557w     41 calls
| DFH: AO-Met. Contraction  :      5.550u      2.967s      5.127w     41 calls
HF: Form H                  :      0.067u      0.133s      1.055w     41 calls
HF: Form S/X                :      0.167u      0.000s      0.124w     41 calls
HF: Guess                   :      5.967u      0.367s      5.057w     41 calls
| SAD Guess                 :      5.800u      0.367s      4.968w     41 calls
HF: Form G                  :    375.033u      7.317s    229.613w    370 calls
| RV: Form V                :    366.600u      7.317s    224.460w    370 calls
| | Properties              :    179.883u      1.217s    108.865w 292153 calls
| | Functional              :     36.900u      1.200s     22.872w 292153 calls
| | V_xc                    :    146.767u      1.150s     89.615w 292153 calls
| JK: D                     :      0.033u      0.000s      0.010w    370 calls
| JK: USO2AO                :      0.050u      0.000s      0.018w    370 calls
| JK: JK                    :      8.233u      0.000s      5.028w    370 calls
| | DFH: compute_JK()       :      8.200u      0.000s      5.024w    370 calls
| | | DFH: Grabbing AOs     :      0.000u      0.000s      0.001w    370 calls
| | | DFH: compute_J        :      2.983u      0.000s      1.759w    370 calls
| | | DFH: compute_K        :      5.150u      0.000s      3.248w    370 calls
| JK: AO2USO                :      0.050u      0.000s      0.018w    370 calls
HF: Form F                  :      0.050u      0.000s      0.012w    370 calls
HF: DIIS                    :      0.733u      0.500s      0.884w    370 calls
| DIISManager::add_entry    :      0.000u      0.217s      0.296w    329 calls
| DIISManager::extrapolate  :      0.117u      0.283s      0.267w    288 calls
| | bMatrix setup           :      0.017u      0.233s      0.129w    288 calls
| | bMatrix pseudoinverse   :      0.033u      0.000s      0.014w    288 calls
| | New vector              :      0.067u      0.050s      0.120w    288 calls
HF: Form C                  :      2.033u      0.000s      1.150w    370 calls
HF: Form D                  :      0.033u      0.000s      0.008w    370 calls
Grad: V T Perturb           :      7.600u      0.233s      4.769w     41 calls
Grad: S                     :      0.217u      0.000s      0.098w     41 calls
Grad: JK                    :     84.183u      8.350s     55.899w     41 calls
| JKGrad: Amn               :     10.883u      3.600s      8.814w     41 calls
| JKGrad: Awmn              :      0.000u      0.000s      0.000w     41 calls
| JKGrad: AB                :      1.850u      0.267s      1.228w     41 calls
| JKGrad: UV                :      0.000u      0.000s      0.024w     41 calls
| JKGrad: ABx               :      1.317u      0.050s      0.875w     41 calls
| JKGrad: Amnx              :     68.233u      3.983s     43.343w     41 calls
Grad: XC                    :     77.217u      0.750s     46.933w     41 calls
| Properties                :     36.817u      0.167s     22.058w  32399 calls
| Functional                :      4.267u      0.200s      2.721w  32399 calls
| V_xc gradient             :     34.967u      0.067s     20.991w  32399 calls

***********************************************************

Host: LAPTOP-UD8U1GLI

Timers On : Sun Sep 29 18:23:13 2019
Timers Off: Sun Sep 29 18:29:36 2019

Wall Time:      383.19 seconds

V: Grid                     :      2.933u      0.050s      1.910w     41 calls
DFH: initialize()           :     17.583u      4.683s     14.070w     41 calls
DFH: sparsity prep          :      1.800u      0.000s      1.103w     41 calls
DFH: AO Construction        :      8.033u      1.250s      5.623w     41 calls
DFH: AO-Met. Contraction    :      5.500u      3.117s      5.188w     41 calls
HF: Form H                  :      0.050u      0.333s      1.079w     41 calls
HF: Form S/X                :      0.150u      0.017s      0.128w     41 calls
HF: Guess                   :      6.350u      0.350s      4.876w     41 calls
SAD Guess                   :      6.183u      0.350s      4.783w     41 calls
HF: Form G                  :    379.783u      5.783s    231.132w    370 calls
RV: Form V                  :    370.917u      5.783s    226.014w    370 calls
Properties                  :    219.233u      1.017s    131.986w 324552 calls
Functional                  :     41.200u      1.267s     25.703w 324552 calls
V_xc                        :    149.367u      0.933s     90.262w 292153 calls
JK: D                       :      0.033u      0.000s      0.010w    370 calls
JK: USO2AO                  :      0.017u      0.000s      0.018w    370 calls
JK: JK                      :      8.633u      0.000s      4.996w    370 calls
DFH: compute_JK()           :      8.633u      0.000s      4.993w    370 calls
DFH: Grabbing AOs           :      0.000u      0.000s      0.001w    370 calls
DFH: compute_J              :      3.317u      0.000s      1.745w    370 calls
DFH: compute_K              :      5.317u      0.000s      3.231w    370 calls
JK: AO2USO                  :      0.067u      0.000s      0.017w    370 calls
HF: Form F                  :      0.033u      0.000s      0.012w    370 calls
HF: DIIS                    :      0.833u      0.467s      0.844w    370 calls
DIISManager::add_entry      :      0.000u      0.150s      0.260w    329 calls
DIISManager::extrapolate    :      0.150u      0.317s      0.267w    288 calls
bMatrix setup               :      0.033u      0.283s      0.130w    288 calls
bMatrix pseudoinverse       :      0.033u      0.000s      0.013w    288 calls
New vector                  :      0.083u      0.033s      0.120w    288 calls
HF: Form C                  :      1.417u      0.000s      1.143w    370 calls
HF: Form D                  :      0.033u      0.000s      0.008w    370 calls
Grad: V T Perturb           :      7.500u      0.267s      4.711w     41 calls
Grad: S                     :      0.283u      0.000s      0.099w     41 calls
Grad: JK                    :     85.583u      7.850s     56.385w     41 calls
JKGrad: Amn                 :     11.033u      3.633s      8.862w     41 calls
JKGrad: Awmn                :      0.000u      0.000s      0.000w     41 calls
JKGrad: AB                  :      1.850u      0.150s      1.192w     41 calls
JKGrad: UV                  :      0.000u      0.050s      0.023w     41 calls
JKGrad: ABx                 :      1.267u      0.033s      0.865w     41 calls
JKGrad: Amnx                :     69.567u      3.433s     43.794w     41 calls
Grad: XC                    :     77.817u      0.933s     47.260w     41 calls
V_xc gradient               :     34.800u      0.100s     21.038w  32399 calls

-----------------------------------------------------------
V: Grid                     :      2.933u      0.050s      1.910w     41 calls
DFH: initialize()           :     17.583u      4.683s     14.070w     41 calls
| DFH: sparsity prep        :      1.800u      0.000s      1.103w     41 calls
| DFH: AO Construction      :      8.033u      1.250s      5.623w     41 calls
| DFH: AO-Met. Contraction  :      5.500u      3.117s      5.188w     41 calls
HF: Form H                  :      0.050u      0.333s      1.079w     41 calls
HF: Form S/X                :      0.150u      0.017s      0.128w     41 calls
HF: Guess                   :      6.350u      0.350s      4.876w     41 calls
| SAD Guess                 :      6.183u      0.350s      4.783w     41 calls
HF: Form G                  :    379.783u      5.783s    231.132w    370 calls
| RV: Form V                :    370.917u      5.783s    226.014w    370 calls
| | Properties              :    181.550u      0.833s    109.678w 292153 calls
| | Functional              :     37.433u      1.133s     22.959w 292153 calls
| | V_xc                    :    149.367u      0.933s     90.262w 292153 calls
| JK: D                     :      0.033u      0.000s      0.010w    370 calls
| JK: USO2AO                :      0.017u      0.000s      0.018w    370 calls
| JK: JK                    :      8.633u      0.000s      4.996w    370 calls
| | DFH: compute_JK()       :      8.633u      0.000s      4.993w    370 calls
| | | DFH: Grabbing AOs     :      0.000u      0.000s      0.001w    370 calls
| | | DFH: compute_J        :      3.317u      0.000s      1.745w    370 calls
| | | DFH: compute_K        :      5.317u      0.000s      3.231w    370 calls
| JK: AO2USO                :      0.067u      0.000s      0.017w    370 calls
HF: Form F                  :      0.033u      0.000s      0.012w    370 calls
HF: DIIS                    :      0.833u      0.467s      0.844w    370 calls
| DIISManager::add_entry    :      0.000u      0.150s      0.260w    329 calls
| DIISManager::extrapolate  :      0.150u      0.317s      0.267w    288 calls
| | bMatrix setup           :      0.033u      0.283s      0.130w    288 calls
| | bMatrix pseudoinverse   :      0.033u      0.000s      0.013w    288 calls
| | New vector              :      0.083u      0.033s      0.120w    288 calls
HF: Form C                  :      1.417u      0.000s      1.143w    370 calls
HF: Form D                  :      0.033u      0.000s      0.008w    370 calls
Grad: V T Perturb           :      7.500u      0.267s      4.711w     41 calls
Grad: S                     :      0.283u      0.000s      0.099w     41 calls
Grad: JK                    :     85.583u      7.850s     56.385w     41 calls
| JKGrad: Amn               :     11.033u      3.633s      8.862w     41 calls
| JKGrad: Awmn              :      0.000u      0.000s      0.000w     41 calls
| JKGrad: AB                :      1.850u      0.150s      1.192w     41 calls
| JKGrad: UV                :      0.000u      0.050s      0.023w     41 calls
| JKGrad: ABx               :      1.267u      0.033s      0.865w     41 calls
| JKGrad: Amnx              :     69.567u      3.433s     43.794w     41 calls
Grad: XC                    :     77.817u      0.933s     47.260w     41 calls
| Properties                :     37.683u      0.183s     22.308w  32399 calls
| Functional                :      3.767u      0.133s      2.744w  32399 calls
| V_xc gradient             :     34.800u      0.100s     21.038w  32399 calls

***********************************************************

Host: LAPTOP-UD8U1GLI

Timers On : Sun Sep 29 19:13:43 2019
Timers Off: Sun Sep 29 19:19:39 2019

Wall Time:      356.59 seconds

V: Grid                     :      3.083u      0.033s      1.811w     41 calls
DFH: initialize()           :     16.550u      3.850s     12.774w     41 calls
DFH: sparsity prep          :      1.800u      0.033s      1.072w     41 calls
DFH: AO Construction        :      7.950u      0.133s      4.800w     41 calls
DFH: AO-Met. Contraction    :      4.517u      3.467s      4.897w     41 calls
HF: Form H                  :      0.000u      0.250s      1.025w     41 calls
HF: Form S/X                :      0.183u      0.000s      0.121w     41 calls
HF: Guess                   :      5.600u      0.333s      4.738w     41 calls
SAD Guess                   :      5.517u      0.333s      4.649w     41 calls
HF: Form G                  :    347.333u      6.167s    212.214w    370 calls
RV: Form V                  :    339.033u      6.133s    207.441w    370 calls
Properties                  :    197.267u      1.267s    119.560w 324552 calls
Functional                  :     37.850u      1.083s     23.743w 324552 calls
V_xc                        :    138.667u      1.033s     83.572w 292153 calls
JK: D                       :      0.000u      0.000s      0.009w    370 calls
JK: USO2AO                  :      0.000u      0.000s      0.017w    370 calls
JK: JK                      :      8.100u      0.033s      4.658w    370 calls
DFH: compute_JK()           :      8.100u      0.033s      4.655w    370 calls
DFH: Grabbing AOs           :      0.000u      0.000s      0.001w    370 calls
DFH: compute_J              :      3.183u      0.000s      1.627w    370 calls
DFH: compute_K              :      4.883u      0.000s      3.012w    370 calls
JK: AO2USO                  :      0.033u      0.000s      0.016w    370 calls
HF: Form F                  :      0.033u      0.000s      0.011w    370 calls
HF: DIIS                    :      0.683u      0.500s      0.795w    370 calls
DIISManager::add_entry      :      0.050u      0.283s      0.259w    329 calls
DIISManager::extrapolate    :      0.133u      0.217s      0.242w    288 calls
bMatrix setup               :      0.033u      0.167s      0.117w    288 calls
bMatrix pseudoinverse       :      0.033u      0.000s      0.012w    288 calls
New vector                  :      0.033u      0.050s      0.109w    288 calls
HF: Form C                  :      1.733u      0.000s      1.073w    370 calls
HF: Form D                  :      0.000u      0.000s      0.007w    370 calls
Grad: V T Perturb           :      6.983u      0.267s      4.455w     41 calls
Grad: S                     :      0.233u      0.000s      0.093w     41 calls
Grad: JK                    :     78.550u      7.483s     52.081w     41 calls
JKGrad: Amn                 :     10.317u      3.017s      8.158w     41 calls
JKGrad: Awmn                :      0.000u      0.000s      0.000w     41 calls
JKGrad: AB                  :      1.417u      0.333s      1.098w     41 calls
JKGrad: UV                  :      0.000u      0.000s      0.021w     41 calls
JKGrad: ABx                 :      1.217u      0.050s      0.848w     41 calls
JKGrad: Amnx                :     63.733u      3.617s     40.427w     41 calls
Grad: XC                    :     70.000u      0.717s     42.411w     41 calls
V_xc gradient               :     31.717u      0.033s     19.089w  32399 calls

-----------------------------------------------------------
V: Grid                     :      3.083u      0.033s      1.811w     41 calls
DFH: initialize()           :     16.550u      3.850s     12.774w     41 calls
| DFH: sparsity prep        :      1.800u      0.033s      1.072w     41 calls
| DFH: AO Construction      :      7.950u      0.133s      4.800w     41 calls
| DFH: AO-Met. Contraction  :      4.517u      3.467s      4.897w     41 calls
HF: Form H                  :      0.000u      0.250s      1.025w     41 calls
HF: Form S/X                :      0.183u      0.000s      0.121w     41 calls
HF: Guess                   :      5.600u      0.333s      4.738w     41 calls
| SAD Guess                 :      5.517u      0.333s      4.649w     41 calls
HF: Form G                  :    347.333u      6.167s    212.214w    370 calls
| RV: Form V                :    339.033u      6.133s    207.441w    370 calls
| | Properties              :    165.067u      1.117s     99.802w 292153 calls
| | Functional              :     33.083u      1.067s     21.225w 292153 calls
| | V_xc                    :    138.667u      1.033s     83.572w 292153 calls
| JK: D                     :      0.000u      0.000s      0.009w    370 calls
| JK: USO2AO                :      0.000u      0.000s      0.017w    370 calls
| JK: JK                    :      8.100u      0.033s      4.658w    370 calls
| | DFH: compute_JK()       :      8.100u      0.033s      4.655w    370 calls
| | | DFH: Grabbing AOs     :      0.000u      0.000s      0.001w    370 calls
| | | DFH: compute_J        :      3.183u      0.000s      1.627w    370 calls
| | | DFH: compute_K        :      4.883u      0.000s      3.012w    370 calls
| JK: AO2USO                :      0.033u      0.000s      0.016w    370 calls
HF: Form F                  :      0.033u      0.000s      0.011w    370 calls
HF: DIIS                    :      0.683u      0.500s      0.795w    370 calls
| DIISManager::add_entry    :      0.050u      0.283s      0.259w    329 calls
| DIISManager::extrapolate  :      0.133u      0.217s      0.242w    288 calls
| | bMatrix setup           :      0.033u      0.167s      0.117w    288 calls
| | bMatrix pseudoinverse   :      0.033u      0.000s      0.012w    288 calls
| | New vector              :      0.033u      0.050s      0.109w    288 calls
HF: Form C                  :      1.733u      0.000s      1.073w    370 calls
HF: Form D                  :      0.000u      0.000s      0.007w    370 calls
Grad: V T Perturb           :      6.983u      0.267s      4.455w     41 calls
Grad: S                     :      0.233u      0.000s      0.093w     41 calls
Grad: JK                    :     78.550u      7.483s     52.081w     41 calls
| JKGrad: Amn               :     10.317u      3.017s      8.158w     41 calls
| JKGrad: Awmn              :      0.000u      0.000s      0.000w     41 calls
| JKGrad: AB                :      1.417u      0.333s      1.098w     41 calls
| JKGrad: UV                :      0.000u      0.000s      0.021w     41 calls
| JKGrad: ABx               :      1.217u      0.050s      0.848w     41 calls
| JKGrad: Amnx              :     63.733u      3.617s     40.427w     41 calls
Grad: XC                    :     70.000u      0.717s     42.411w     41 calls
| Properties                :     32.200u      0.150s     19.757w  32399 calls
| Functional                :      4.767u      0.017s      2.518w  32399 calls
| V_xc gradient             :     31.717u      0.033s     19.089w  32399 calls

***********************************************************
