
Host: LAPTOP-UD8U1GLI

Timers On : Thu Nov 14 09:33:26 2019
Timers Off: Thu Nov 14 09:33:27 2019

Wall Time:        0.88 seconds


-----------------------------------------------------------

***********************************************************
